VARIABLES="w (rad/s)"
"abs(F   1   1)" "angle(F   1   1)"
"abs(F   1   2)" "angle(F   1   2)"
"abs(F   1   3)" "angle(F   1   3)"
"abs(F   1   4)" "angle(F   1   4)"
"abs(F   1   5)" "angle(F   1   5)"
"abs(F   1   6)" "angle(F   1   6)"
Zone t="Diffraction force - beta =   0.000 deg",I=    41,F=POINT
  0.1000000E+00  0.5812677E+04 -0.3141592E+01  0.2185378E-03 -0.2192694E+01  0.2758324E+04  0.1581727E+01  0.7966509E-03 -0.1314204E+01  0.1780054E+05 -0.3141592E+01  0.2112966E-04 -0.1187567E+00
  0.1475000E+00  0.1269323E+05 -0.3141584E+01  0.1719104E-03 -0.1581892E+01  0.5993936E+04  0.1593847E+01  0.3666347E-02 -0.1351055E+01  0.3904873E+05 -0.3141584E+01  0.3081785E-04  0.3001884E+01
  0.1950000E+00  0.2210149E+05 -0.3141547E+01  0.2566221E-02 -0.1531022E+01  0.1039932E+05  0.1609611E+01  0.6668101E-02 -0.1569080E+01  0.6815885E+05 -0.3141547E+01  0.3052130E-04 -0.3125969E+01
  0.2425000E+00  0.3403926E+05 -0.3141429E+01  0.3778341E-02 -0.2152848E+01  0.1583305E+05  0.1628424E+01  0.5078226E-02 -0.2504401E+01  0.1054296E+06 -0.3141428E+01  0.4196438E-03  0.1136315E-01
  0.2900000E+00  0.4841604E+05 -0.3141128E+01  0.8862576E-02  0.1210073E+01  0.2221979E+05  0.1649246E+01  0.2113331E-01  0.1352088E+01  0.1506284E+06 -0.3141125E+01  0.3587641E-03  0.3109689E+01
  0.3375000E+00  0.6515593E+05 -0.3140476E+01  0.5054926E-02 -0.2147915E+01  0.2930758E+05  0.1671587E+01  0.2108527E-01  0.1424089E+01  0.2035669E+06 -0.3140466E+01  0.4502798E-03  0.2541825E-01
  0.3850000E+00  0.8427285E+05 -0.3139220E+01  0.9074782E-02  0.7890394E+00  0.3682470E+05  0.1694990E+01  0.4596139E-02  0.1660555E+01  0.2649702E+06 -0.3139200E+01  0.7630253E-03 -0.3126594E+01
  0.4325000E+00  0.1056592E+06 -0.3137017E+01  0.1848272E-01  0.1110102E+01  0.4455406E+05  0.1718807E+01  0.7415459E-01  0.2968291E+01  0.3343988E+06 -0.3136979E+01  0.1162075E-03 -0.1165905E+01
  0.4800000E+00  0.1292308E+06 -0.3133422E+01  0.3248712E-02  0.1690855E+01  0.5232650E+05  0.1742312E+01  0.3328923E-01  0.1960581E+01  0.4121062E+06 -0.3133356E+01  0.2339439E-03  0.4198799E+00
  0.5275000E+00  0.1549795E+06 -0.3127902E+01  0.5656405E-02 -0.1170377E+01  0.5999248E+05  0.1764898E+01  0.3890149E-01 -0.2400031E+01  0.4977908E+06 -0.3127785E+01  0.8110158E-04 -0.2422763E+01
  0.5750000E+00  0.1830394E+06 -0.3119852E+01  0.9788678E-02 -0.5222397E+00  0.6686841E+05  0.1787982E+01  0.5135975E-01 -0.7555625E+00  0.5940990E+06 -0.3119686E+01  0.5233230E-03  0.3010005E+01
  0.6225000E+00  0.2128440E+06 -0.3108561E+01  0.2183678E-01  0.2822825E+01  0.7338468E+05  0.1809172E+01  0.6510723E-01  0.1678814E+01  0.6967504E+06 -0.3108289E+01  0.1070837E-02 -0.7130747E-01
  0.6700000E+00  0.2446971E+06 -0.3093378E+01  0.1174560E-01  0.1152044E+01  0.7889053E+05  0.1830266E+01  0.6600489E-01  0.1453552E+01  0.8096574E+06 -0.3092989E+01  0.6715602E-03  0.3118869E+01
  0.7175000E+00  0.2781533E+06 -0.3073569E+01  0.4204413E-01 -0.1934631E+00  0.8371116E+05  0.1849502E+01  0.2162155E-01 -0.8623232E+00  0.9316739E+06 -0.3073061E+01  0.1587079E-02 -0.1442208E-01
  0.7650000E+00  0.3126575E+06 -0.3048416E+01  0.4175865E-01 -0.2920367E+01  0.8724408E+05  0.1868808E+01  0.5491228E-01 -0.2511652E+01  0.1059880E+07 -0.3047734E+01  0.6492162E-03 -0.2793826E+01
  0.8125000E+00  0.3474448E+06 -0.3017359E+01  0.1878166E-01 -0.2791000E+01  0.9019723E+05  0.1885887E+01  0.9127321E-01 -0.2503308E+01  0.1191419E+07 -0.3016381E+01  0.9163216E-03 -0.4164258E-01
  0.8600000E+00  0.3823908E+06 -0.2980230E+01  0.1281887E-01  0.1258645E+01  0.9145025E+05  0.1903538E+01  0.1371445E-01 -0.1992636E+01  0.1330233E+07 -0.2979044E+01  0.9339388E-03  0.2199593E+01
  0.9075000E+00  0.4161235E+06 -0.2936601E+01  0.3605271E-01  0.3078171E+01  0.9202455E+05  0.1919717E+01  0.6095259E-01 -0.1428120E+01  0.1469251E+07 -0.2935203E+01  0.2570008E-02  0.3070285E+01
  0.9550000E+00  0.4466405E+06 -0.2886248E+01  0.2738948E-01  0.2932766E+01  0.9161112E+05  0.1934627E+01  0.1361463E+00 -0.2829695E+01  0.1600496E+07 -0.2884539E+01  0.2920175E-03 -0.2560836E+01
  0.1002500E+01  0.4728978E+06 -0.2829576E+01  0.1626618E-01 -0.2184592E+01  0.8990135E+05  0.1949560E+01  0.1410381E+00  0.1135215E+01  0.1718784E+07 -0.2827351E+01  0.1755765E-02  0.2160607E+01
  0.1050000E+01  0.4939427E+06 -0.2768140E+01  0.1106796E+00  0.3090414E+01  0.8762922E+05  0.1963517E+01  0.4146399E+00 -0.2976420E+01  0.1824017E+07 -0.2765476E+01  0.2064073E-02  0.1749162E+01
  0.1097500E+01  0.5075808E+06 -0.2702320E+01  0.4208899E-01  0.2837756E+01  0.8459952E+05  0.1976202E+01  0.3591121E+00  0.1626898E+00  0.1905918E+07 -0.2699207E+01  0.1856328E-02  0.2740479E+01
  0.1145000E+01  0.5132840E+06 -0.2633316E+01  0.1503920E-01 -0.2210036E+01  0.8056313E+05  0.1988206E+01  0.1776553E+00  0.2530613E+00  0.1959513E+07 -0.2629650E+01  0.4795437E-02  0.7403836E+00
  0.1192500E+01  0.5106242E+06 -0.2563408E+01  0.5093200E-01 -0.9608557E+00  0.7616493E+05  0.1999695E+01  0.1786986E+00 -0.2702887E+00  0.1983498E+07 -0.2559211E+01  0.2201500E-02 -0.2375800E+01
  0.1240000E+01  0.4990826E+06 -0.2493659E+01  0.5049903E-01  0.2267624E+01  0.7160016E+05  0.2010644E+01  0.7442752E-01  0.1433828E+01  0.1973297E+07 -0.2488897E+01  0.3446325E-02  0.2965458E+00
  0.1287500E+01  0.4797872E+06 -0.2425355E+01  0.7400338E-01  0.3077733E+01  0.6639020E+05  0.2019218E+01  0.2169750E+00  0.2613427E+01  0.1931145E+07 -0.2419904E+01  0.1669565E-02 -0.3159703E+00
  0.1335000E+01  0.4536315E+06 -0.2360151E+01  0.4690043E-01  0.1581208E+01  0.6098062E+05  0.2027334E+01  0.4011833E-01  0.9151239E+00  0.1859261E+07 -0.2354027E+01  0.2767525E-02  0.7229794E+00
  0.1382500E+01  0.4219651E+06 -0.2298699E+01  0.2188168E-01 -0.7794811E+00  0.5564438E+05  0.2034789E+01  0.2615669E+00  0.2998561E+01  0.1761235E+07 -0.2291852E+01  0.3346514E-03 -0.2388441E+01
  0.1430000E+01  0.3855413E+06 -0.2241058E+01  0.3894070E-01 -0.3722553E-02  0.5047188E+05  0.2042025E+01  0.3996792E+00  0.5448730E-01  0.1639178E+07 -0.2233387E+01  0.6471526E-02  0.2061863E+01
  0.1477500E+01  0.3466637E+06 -0.2188253E+01  0.4474474E-01  0.1179997E+00  0.4525636E+05  0.2046390E+01  0.7338069E-01 -0.1907211E+01  0.1500962E+07 -0.2179560E+01  0.7339854E-03 -0.2093166E+01
  0.1525000E+01  0.3057129E+06 -0.2139531E+01  0.1398421E-01 -0.1969742E+01  0.4021209E+05  0.2050019E+01  0.2798481E+00 -0.2801922E+01  0.1347882E+07 -0.2129781E+01  0.1961585E-02  0.9763213E+00
  0.1572500E+01  0.2641694E+06 -0.2095600E+01  0.1936319E-01  0.2423949E+01  0.3549469E+05  0.2052738E+01  0.3426748E+00  0.3038371E+01  0.1186258E+07 -0.2084627E+01  0.9437040E-03  0.1969319E+01
  0.1620000E+01  0.2225736E+06 -0.2055125E+01  0.4889278E-01  0.3129421E+01  0.3109593E+05  0.2055034E+01  0.3236264E+00  0.3063174E+01  0.1017070E+07 -0.2042589E+01  0.8010501E-03  0.1261093E+01
  0.1667500E+01  0.1814905E+06 -0.2017946E+01  0.5736701E-01  0.3077979E+01  0.2705854E+05  0.2056550E+01  0.1084840E+00 -0.2878788E+01  0.8440941E+06 -0.2003355E+01  0.1938046E-02  0.2027402E+01
  0.1715000E+01  0.1417285E+06 -0.1983629E+01  0.7617956E-01 -0.4247645E-01  0.2334527E+05  0.2056536E+01  0.5632324E-01  0.2377078E+01  0.6703961E+06 -0.1966105E+01  0.1652464E-02 -0.1496857E+01
  0.1762500E+01  0.1034818E+06 -0.1950909E+01  0.3930910E-01 -0.3004526E+01  0.1996531E+05  0.2055935E+01  0.6995434E-01  0.2687862E+01  0.4973658E+06 -0.1928980E+01  0.1125433E-02  0.7086262E+00
  0.1810000E+01  0.6709549E+05 -0.1917956E+01  0.1551797E-01 -0.2981617E+01  0.1705718E+05  0.2057097E+01  0.1703291E+00  0.5355212E-01  0.3273741E+06 -0.1887627E+01  0.1968325E-02 -0.1243550E+00
  0.1857500E+01  0.3277430E+05 -0.1871551E+01  0.1838456E-01 -0.3051835E+01  0.1443668E+05  0.2058358E+01  0.1946644E+00  0.3139515E+01  0.1615955E+06 -0.1817331E+01  0.5627163E-03 -0.1352127E+01
  0.1905000E+01  0.1557973E+04 -0.6971167E+00  0.4009434E-02 -0.1494608E+01  0.1223257E+05  0.2064056E+01  0.2330243E+00  0.1141693E+00  0.1467967E+05 -0.3448948E+00  0.5627163E-03  0.1352127E+01
  0.1952500E+01  0.2925678E+05  0.1217017E+01  0.4483136E-01 -0.6807247E-02  0.1024071E+05  0.2070221E+01  0.4318555E-01  0.3072727E+01  0.1536668E+06  0.1179734E+01  0.1953125E-02 -0.3141592E+01
  0.2000000E+01  0.5656527E+05  0.1258385E+01  0.4576775E-01 -0.1925571E+00  0.8582187E+04  0.2085114E+01  0.2616137E-01  0.2620774E+01  0.2985757E+06  0.1244476E+01  0.1208434E-02  0.7853982E+00
