VARIABLES="w (rad/s)"
"abs(F   1   1)" "angle(F   1   1)"
"abs(F   1   2)" "angle(F   1   2)"
"abs(F   1   3)" "angle(F   1   3)"
"abs(F   1   4)" "angle(F   1   4)"
"abs(F   1   5)" "angle(F   1   5)"
"abs(F   1   6)" "angle(F   1   6)"
Zone t="Diffraction force - beta =   0.000 deg",I=    41,F=POINT
  0.1000000E+00  0.1353778E+05 -0.3141592E+01  0.1580345E-01 -0.1581055E+01  0.7512185E+06 -0.1570836E+01  0.1450478E+01 -0.1570722E+01  0.4186933E+05 -0.3141586E+01  0.2548718E-03  0.1247123E+01
  0.1475000E+00  0.2939983E+05 -0.3141591E+01  0.4456692E-01  0.1569299E+01  0.7389942E+06 -0.1570983E+01  0.1930504E+01  0.1570410E+01  0.9120522E+05 -0.3141589E+01  0.2487907E-03  0.1517105E+01
  0.1950000E+00  0.5106002E+05 -0.3141572E+01  0.3028282E-01  0.1596622E+01  0.7223198E+06 -0.1571355E+01  0.1441238E+01 -0.1571053E+01  0.1588161E+06 -0.3141571E+01  0.2980598E-03  0.2184537E+01
  0.2425000E+00  0.7835319E+05 -0.3141522E+01  0.4589940E-01 -0.1599266E+01  0.7015004E+06 -0.1572096E+01  0.5938798E+00 -0.1582140E+01  0.2446514E+06 -0.3141520E+01  0.4883045E-03  0.9765314E-02
  0.2900000E+00  0.1109809E+06 -0.3141389E+01  0.8173134E-01 -0.1533215E+01  0.6768190E+06 -0.1573369E+01  0.5933855E+00  0.1568392E+01  0.3480415E+06 -0.3141390E+01  0.1966360E-02  0.1613488E+01
  0.3375000E+00  0.1486225E+06 -0.3141104E+01  0.8043721E-02 -0.1929373E+01  0.6487715E+06 -0.1575341E+01  0.9900975E+00  0.1569872E+01  0.4682778E+06 -0.3141104E+01  0.5110129E-03  0.5237756E+00
  0.3850000E+00  0.1910138E+06 -0.3140546E+01  0.6429404E-01  0.1496861E+01  0.6179066E+06 -0.1578179E+01  0.2601449E+00 -0.1594671E+01  0.6054906E+06 -0.3140545E+01  0.1488930E-02 -0.2416014E+01
  0.4325000E+00  0.2377419E+06 -0.3139559E+01  0.2085829E-01 -0.1155914E+01  0.5847429E+06 -0.1582033E+01  0.1075053E+01  0.1634895E+01  0.7585765E+06 -0.3139559E+01  0.1603335E-02  0.1532719E+01
  0.4800000E+00  0.2883938E+06 -0.3137932E+01  0.9290529E-01 -0.1568497E+01  0.5497647E+06 -0.1587042E+01  0.4505987E+00  0.1611478E+01  0.9270621E+06 -0.3137931E+01  0.2305596E-02  0.1464707E+01
  0.5275000E+00  0.3426142E+06 -0.3135400E+01  0.3758438E-01 -0.1481767E+01  0.5134463E+06 -0.1593335E+01  0.1416502E+01  0.1594411E+01  0.1109864E+07 -0.3135400E+01  0.1929151E-02 -0.9059377E+00
  0.5750000E+00  0.4001752E+06 -0.3131649E+01  0.7434088E-02  0.6426799E+00  0.4768094E+06 -0.1601020E+01  0.9742903E+00 -0.1535801E+01  0.1308789E+07 -0.3131649E+01  0.1561792E-02  0.2297439E+01
  0.6225000E+00  0.4601363E+06 -0.3126316E+01  0.3154768E-01  0.2247048E+01  0.4397316E+06 -0.1610212E+01  0.8054508E+00  0.1569812E+01  0.1518656E+07 -0.3126315E+01  0.2075700E-02  0.2205525E-01
  0.6700000E+00  0.5224134E+06 -0.3119015E+01  0.1613548E+00  0.1545828E+01  0.4031946E+06 -0.1621018E+01  0.1516320E+01  0.1560230E+01  0.1742405E+07 -0.3119014E+01  0.6263544E-03  0.1619538E+01
  0.7175000E+00  0.5861584E+06 -0.3109333E+01  0.6615234E-01  0.8659351E+00  0.3671557E+06 -0.1633562E+01  0.5750333E-01  0.1348731E+01  0.1977816E+07 -0.3109330E+01  0.2913839E-02 -0.1763406E+00
  0.7650000E+00  0.6503896E+06 -0.3096850E+01  0.4317750E-01 -0.2917614E+01  0.3325228E+06 -0.1647910E+01  0.1474246E+01 -0.1589097E+01  0.2220759E+07 -0.3096849E+01  0.7984662E-03 -0.2047264E+01
  0.8125000E+00  0.7138877E+06 -0.3081248E+01  0.5405401E-01  0.1902612E+01  0.2988325E+06 -0.1664471E+01  0.4818894E+00  0.1711727E+01  0.2466983E+07 -0.3081244E+01  0.3345201E-02  0.1718977E+00
  0.8600000E+00  0.7760445E+06 -0.3062344E+01  0.5395661E-02 -0.9349324E+00  0.2674519E+06 -0.1682716E+01  0.8169010E+00  0.1583648E+01  0.2718844E+07 -0.3062330E+01  0.3679433E-02  0.2934844E+01
  0.9075000E+00  0.8349604E+06 -0.3039969E+01  0.3764858E-01 -0.2933287E+01  0.2375846E+06 -0.1703609E+01  0.9106353E+00  0.1563960E+01  0.2967415E+07 -0.3039953E+01  0.4883194E-02  0.3129093E+01
  0.9550000E+00  0.8880833E+06 -0.3014220E+01  0.3524908E-01  0.2397797E+01  0.2097007E+06 -0.1726891E+01  0.1699246E+00 -0.2555234E+01  0.3202612E+07 -0.3014197E+01  0.5640078E-03 -0.2617413E+01
  0.1002500E+01  0.9338341E+06 -0.2985504E+01  0.1714554E-01  0.2187651E+01  0.1842687E+06 -0.1752194E+01  0.1078216E+01  0.1516029E+01  0.3417028E+07 -0.2985483E+01  0.2740138E-02  0.2580042E+01
  0.1050000E+01  0.9708640E+06 -0.2954895E+01  0.1177124E+00  0.2928554E+01  0.1607294E+06 -0.1780989E+01  0.5351548E+00 -0.2491773E+01  0.3608725E+07 -0.2954853E+01  0.4620825E-02  0.2686437E+01
  0.1097500E+01  0.9966446E+06 -0.2923271E+01  0.5945046E-01 -0.2444012E+01  0.1393235E+06 -0.1812627E+01  0.1149719E+01  0.1243824E+01  0.3765616E+07 -0.2923185E+01  0.2569658E-02 -0.2696535E+01
  0.1145000E+01  0.1010526E+07 -0.2891804E+01  0.4495138E-01 -0.1639419E+01  0.1203195E+06 -0.1845687E+01  0.2192487E+00  0.6516855E+00  0.3881604E+07 -0.2891703E+01  0.7670301E-02  0.4707650E+00
  0.1192500E+01  0.1012345E+07 -0.2862321E+01  0.2810958E-01 -0.2144298E+00  0.1032340E+06 -0.1882650E+01  0.5786617E+00 -0.1252223E+01  0.3955683E+07 -0.2862177E+01  0.1950262E-02 -0.3514446E+00
  0.1240000E+01  0.1001983E+07 -0.2836250E+01  0.6380688E-01  0.1930519E+01  0.8793134E+05 -0.1924867E+01  0.4065433E+00 -0.1586335E+01  0.3984099E+07 -0.2836054E+01  0.2862965E-02  0.5495599E+00
  0.1287500E+01  0.9811526E+06 -0.2814749E+01  0.9170275E-01  0.2491502E+01  0.7462560E+05 -0.1966762E+01  0.2119944E+00 -0.2609716E+01  0.3970683E+07 -0.2814481E+01  0.7331908E-02 -0.1884162E+00
  0.1335000E+01  0.9515819E+06 -0.2799190E+01  0.4619635E-01  0.1574760E+01  0.6303630E+05 -0.2011379E+01  0.6163988E+00  0.1566860E+01  0.3920522E+07 -0.2798859E+01  0.3183204E-02  0.2137526E+01
  0.1382500E+01  0.9153302E+06 -0.2790240E+01  0.2683127E-01 -0.8473656E+00  0.5291101E+05 -0.2060813E+01  0.2905259E+00 -0.2789369E+01  0.3839670E+07 -0.2789855E+01  0.9709436E-03 -0.1043853E+01
  0.1430000E+01  0.8738098E+06 -0.2788538E+01  0.4645548E-01 -0.4717268E+00  0.4414569E+05 -0.2116521E+01  0.4627518E+00  0.4158287E+00  0.3732610E+07 -0.2788047E+01  0.4829980E-02  0.1774387E+01
  0.1477500E+01  0.8298982E+06 -0.2794050E+01  0.6350184E-01  0.8444283E+00  0.3664441E+05 -0.2171800E+01  0.5152023E+00 -0.1621152E+01  0.3609515E+07 -0.2793471E+01  0.5573227E-02 -0.2971887E+01
  0.1525000E+01  0.7843420E+06 -0.2806969E+01  0.4166913E-02  0.2143563E+01  0.3027878E+05 -0.2229832E+01  0.3089862E+00 -0.2827693E+01  0.3473327E+07 -0.2806348E+01  0.5532153E-02  0.2820278E+01
  0.1572500E+01  0.7389451E+06 -0.2827047E+01  0.2564900E-01 -0.2425448E+01  0.2486993E+05 -0.2293632E+01  0.6989836E+00 -0.2086189E+01  0.3331643E+07 -0.2826316E+01  0.3691776E-02  0.2674248E+01
  0.1620000E+01  0.6942325E+06 -0.2853910E+01  0.4619367E-01  0.3007077E+01  0.2033756E+05 -0.2362848E+01  0.8192362E+00 -0.1983415E+01  0.3185678E+07 -0.2853228E+01  0.6488125E-03 -0.2422762E+01
  0.1667500E+01  0.6508802E+06 -0.2887442E+01  0.5725491E-01 -0.3129866E+01  0.1655500E+05 -0.2438876E+01  0.9372337E-01  0.2755237E+01  0.3039474E+07 -0.2886710E+01  0.2032571E-02  0.8491414E+00
  0.1715000E+01  0.6095574E+06 -0.2926972E+01  0.7716244E-01 -0.2712643E+00  0.1341491E+05 -0.2519149E+01  0.3581039E+00 -0.1833914E+01  0.2895757E+07 -0.2926277E+01  0.2967629E-02 -0.9571216E+00
  0.1762500E+01  0.5703678E+06 -0.2972305E+01  0.3975666E-01 -0.2938608E+01  0.1084249E+05 -0.2603522E+01  0.7518303E-01  0.2713547E+01  0.2755634E+07 -0.2971741E+01  0.3636405E-02  0.2910862E+01
  0.1810000E+01  0.5335124E+06 -0.3023056E+01  0.2308278E-01 -0.2500075E+01  0.8790508E+04 -0.2706583E+01  0.2998955E+00  0.9758286E+00  0.2620574E+07 -0.3022606E+01  0.5005255E-02 -0.1219451E-01
  0.1857500E+01  0.4988892E+06 -0.3078805E+01  0.2315740E-01  0.2329401E+01  0.7148241E+04 -0.2811874E+01  0.2672119E+00  0.2497036E+01  0.2490443E+07 -0.3078626E+01  0.2572361E-02  0.3058451E+01
  0.1905000E+01  0.4665259E+06 -0.3139448E+01  0.1201710E-01  0.1073071E+01  0.5916680E+04 -0.2936029E+01  0.2332040E+00 -0.4801576E+00  0.2366030E+07 -0.3139495E+01  0.6112740E-02 -0.5494459E-01
  0.1952500E+01  0.4363745E+06  0.3078658E+01  0.4068004E-01  0.1225871E+00  0.4925064E+04 -0.3050140E+01  0.1018942E+00 -0.2013145E+01  0.2247551E+07  0.3078342E+01  0.6348830E-02  0.1922830E-01
  0.2000000E+01  0.4083024E+06  0.3009376E+01  0.4871156E-01 -0.1503642E-01  0.4223293E+04  0.3116150E+01  0.4961038E-01  0.2190074E+01  0.2134936E+07  0.3008730E+01  0.3786148E-02  0.3625443E+00
