VARIABLES="w (rad/s)"
"abs(F   1   1)" "angle(F   1   1)"
"abs(F   1   2)" "angle(F   1   2)"
"abs(F   1   3)" "angle(F   1   3)"
"abs(F   1   4)" "angle(F   1   4)"
"abs(F   1   5)" "angle(F   1   5)"
"abs(F   1   6)" "angle(F   1   6)"
Zone t="FKforce - beta =   0.000",I=    41,F=POINT
  0.1000000E+00  0.7725107E+04 -0.3141592E+01  0.1562504E-01 -0.1573024E+01  0.7539767E+06 -0.1570796E+01  0.1449707E+01 -0.1570861E+01  0.2406879E+05 -0.3141582E+01  0.2514248E-03  0.1329497E+01
  0.1475000E+00  0.1670660E+05  0.3141589E+01  0.4473882E-01  0.1569262E+01  0.7449866E+06 -0.1570796E+01  0.1934082E+01  0.1570824E+01  0.5215649E+05 -0.3141593E+01  0.2480507E-03  0.1393006E+01
  0.1950000E+00  0.2895853E+05 -0.3141590E+01  0.3284881E-01  0.1597712E+01  0.7327112E+06 -0.1570796E+01  0.1434570E+01 -0.1571062E+01  0.9065727E+05 -0.3141589E+01  0.2820039E-03  0.2094976E+01
  0.2425000E+00  0.4431393E+05  0.3141592E+01  0.4273156E-01 -0.1552763E+01  0.7173066E+06 -0.1570796E+01  0.5908263E+00 -0.1575290E+01  0.1392218E+06 -0.3141589E+01  0.6866455E-04  0.0000000E+00
  0.2900000E+00  0.6256491E+05 -0.3141590E+01  0.8996584E-01 -0.1571432E+01  0.6989682E+06 -0.1570796E+01  0.5727626E+00  0.1576311E+01  0.1974131E+06 -0.3141593E+01  0.1972342E-02  0.1431087E+01
  0.3375000E+00  0.8346656E+05  0.3141591E+01  0.3296536E-02 -0.1590470E+01  0.6779236E+06 -0.1570796E+01  0.9692407E+00  0.1573032E+01  0.2647110E+06  0.3141591E+01  0.2442598E-03  0.1602036E+01
  0.3850000E+00  0.1067411E+06 -0.3141592E+01  0.5770165E-01  0.1599294E+01  0.6544308E+06 -0.1570796E+01  0.2647119E+00 -0.1592702E+01  0.3405208E+06 -0.3141592E+01  0.1037710E-02 -0.1915799E+01
  0.4325000E+00  0.1320833E+06 -0.3141593E+01  0.3564504E-01 -0.1565445E+01  0.6287729E+06 -0.1570796E+01  0.1060067E+01  0.1566852E+01  0.4241797E+06 -0.3141592E+01  0.1709052E-02  0.1561868E+01
  0.4800000E+00  0.1591654E+06 -0.3141593E+01  0.9613226E-01 -0.1564527E+01  0.6012509E+06 -0.1570796E+01  0.4194720E+00  0.1584329E+01  0.5149637E+06 -0.3141592E+01  0.2197478E-02  0.1556908E+01
  0.5275000E+00  0.1876427E+06  0.3141593E+01  0.3224660E-01 -0.1535536E+01  0.5721818E+06 -0.1570796E+01  0.1442391E+01  0.1574097E+01  0.6120994E+06  0.3141592E+01  0.1926479E-02 -0.8638883E+00
  0.5750000E+00  0.2171593E+06  0.3141592E+01  0.9675805E-02  0.1835665E+01  0.5418892E+06 -0.1570796E+01  0.9384823E+00 -0.1574308E+01  0.7147676E+06  0.3141592E+01  0.1214968E-02  0.2011976E+01
  0.6225000E+00  0.2473547E+06 -0.3141593E+01  0.1778890E-01  0.1515012E+01  0.5106996E+06 -0.1570796E+01  0.7407638E+00  0.1560250E+01  0.8221152E+06  0.3141593E+01  0.1014451E-02  0.1206237E+00
  0.6700000E+00  0.2778675E+06 -0.3141592E+01  0.1505756E+00  0.1575762E+01  0.4789360E+06 -0.1570796E+01  0.1450707E+01  0.1565074E+01  0.9332593E+06  0.3141593E+01  0.8850098E-03  0.7610127E+00
  0.7175000E+00  0.3083433E+06 -0.3141593E+01  0.5849363E-01  0.1543402E+01  0.4469137E+06 -0.1570796E+01  0.7252336E-01  0.1590154E+01  0.1047300E+07 -0.3141593E+01  0.1371594E-02 -0.3639790E+00
  0.7650000E+00  0.3384375E+06 -0.3141592E+01  0.1423654E-02 -0.2836790E+01  0.4149332E+06 -0.1570796E+01  0.1441755E+01 -0.1558731E+01  0.1163321E+07 -0.3141593E+01  0.5459150E-03 -0.1107149E+01
  0.8125000E+00  0.3678212E+06  0.3141593E+01  0.5755616E-01  0.1570266E+01  0.3832790E+06 -0.1570796E+01  0.5315238E+00  0.1560232E+01  0.1280400E+07 -0.3141593E+01  0.2457376E-02  0.2510027E+00
  0.8600000E+00  0.3961856E+06  0.3141592E+01  0.1655674E-01 -0.1615048E+01  0.3522128E+06 -0.1570796E+01  0.8293601E+00  0.1576684E+01  0.1397610E+07  0.3141593E+01  0.3051758E-02  0.3141593E+01
  0.9075000E+00  0.4232417E+06  0.3141593E+01  0.1010699E-01 -0.1655442E+01  0.3219716E+06 -0.1570796E+01  0.9709503E+00  0.1573311E+01  0.1514031E+07 -0.3141593E+01  0.2322546E-02 -0.3089010E+01
  0.9550000E+00  0.4487302E+06 -0.3141593E+01  0.1820854E-01  0.1523851E+01  0.2927654E+06 -0.1570796E+01  0.5359818E-01 -0.1795888E+01  0.1628749E+07 -0.3141593E+01  0.2729575E-03 -0.2677945E+01
  0.1002500E+01  0.4724168E+06  0.3141593E+01  0.2728825E-01  0.1590928E+01  0.2647747E+06 -0.1570796E+01  0.9487306E+00  0.1571311E+01  0.1740859E+07 -0.3141593E+01  0.1342773E-02  0.3141593E+01
  0.1050000E+01  0.4940961E+06  0.3141593E+01  0.1974947E-01  0.1801533E+01  0.2381500E+06 -0.1570796E+01  0.2561859E+00 -0.1637555E+01  0.1849472E+07  0.3141593E+01  0.3784180E-02  0.3141593E+01
  0.1097500E+01  0.5135949E+06 -0.3141593E+01  0.5106773E-01 -0.1676768E+01  0.2130114E+06 -0.1570796E+01  0.1030747E+01  0.1556347E+01  0.1953718E+07 -0.3141593E+01  0.1930101E-02 -0.1892547E+01
  0.1145000E+01  0.5307671E+06  0.3141593E+01  0.3330089E-01 -0.1392992E+01  0.1894482E+06 -0.1570796E+01  0.8853136E-01  0.1544595E+01  0.2052747E+07  0.3141593E+01  0.3304928E-02  0.7393904E-01
  0.1192500E+01  0.5454979E+06  0.3141593E+01  0.3580741E-01  0.1618542E+01  0.1675209E+06 -0.1570796E+01  0.5019124E+00 -0.1552798E+01  0.2145740E+07  0.3141593E+01  0.3523162E-02  0.2449787E+00
  0.1240000E+01  0.5577005E+06  0.3141593E+01  0.2323388E-01  0.1128297E+01  0.1472619E+06 -0.1570796E+01  0.4805073E+00 -0.1605099E+01  0.2231891E+07  0.3141593E+01  0.9841623E-03  0.2622447E+01
  0.1287500E+01  0.5673162E+06 -0.3141593E+01  0.5078844E-01  0.1553971E+01  0.1286778E+06 -0.1570796E+01  0.2169088E+00 -0.1549128E+01  0.2310441E+07  0.3141593E+01  0.5679878E-02 -0.1510153E+00
  0.1335000E+01  0.5743109E+06  0.3141593E+01  0.7653770E-03 -0.1160669E+01  0.1117518E+06 -0.1570796E+01  0.5850098E+00  0.1608469E+01  0.2380659E+07  0.3141593E+01  0.3879455E-02  0.2919511E+01
  0.1382500E+01  0.5786754E+06  0.3141593E+01  0.5215649E-02 -0.1135937E+01  0.9644596E+05 -0.1570796E+01  0.1382023E+00 -0.1670773E+01  0.2441859E+07  0.3141593E+01  0.9533996E-03 -0.6947383E+00
  0.1430000E+01  0.5804193E+06  0.3141593E+01  0.2110725E-01 -0.1454870E+01  0.8270459E+05 -0.1570796E+01  0.1669291E+00  0.1425125E+01  0.2493392E+07 -0.3141593E+01  0.2293493E-02 -0.4398426E+00
  0.1477500E+01  0.5795753E+06 -0.3141593E+01  0.4226619E-01  0.1624252E+01  0.7045700E+05 -0.1570796E+01  0.4452853E+00 -0.1574634E+01  0.2534668E+07  0.3141593E+01  0.5136028E-02 -0.3082139E+01
  0.1525000E+01  0.5761910E+06  0.3141593E+01  0.1669245E-01  0.1379496E+01  0.5962023E+05 -0.1570796E+01  0.3010737E-01 -0.3069563E+01  0.2565150E+07 -0.3141593E+01  0.6348830E-02  0.3122364E+01
  0.1572500E+01  0.5703301E+06 -0.3141593E+01  0.2995230E-01 -0.1730417E+01  0.5010251E+05 -0.1570796E+01  0.6435041E+00 -0.1576487E+01  0.2584362E+07  0.3141593E+01  0.3035234E-02  0.2877104E+01
  0.1620000E+01  0.5620689E+06  0.3141593E+01  0.6406966E-02  0.1063467E+01  0.4180566E+05 -0.1570796E+01  0.7758555E+00 -0.1578388E+01  0.2591900E+07 -0.3141593E+01  0.1397492E-02 -0.2122451E+01
  0.1667500E+01  0.5514961E+06 -0.3141593E+01  0.4318237E-02 -0.1570796E+01  0.3462788E+05 -0.1570796E+01  0.6598621E-01  0.1295387E+01  0.2587437E+07 -0.3141593E+01  0.2207626E-02 -0.9691763E-01
  0.1715000E+01  0.5387103E+06 -0.3141593E+01  0.1753038E-01 -0.1671937E+01  0.2846611E+05 -0.1570796E+01  0.3883295E+00 -0.1706381E+01  0.2570726E+07  0.3141593E+01  0.1767453E-02 -0.4559258E+00
  0.1762500E+01  0.5238200E+06  0.3141593E+01  0.2643585E-02 -0.1570796E+01  0.2321808E+05 -0.1570796E+01  0.5550552E-02  0.3043155E+01  0.2541617E+07  0.3141593E+01  0.4395650E-02  0.3119027E+01
  0.1810000E+01  0.5069409E+06 -0.3141593E+01  0.1177683E-01 -0.1843668E+01  0.1878419E+05 -0.1570796E+01  0.2392547E+00  0.1579151E+01  0.2500050E+07 -0.3141593E+01  0.3057246E-02  0.5992816E-01
  0.1857500E+01  0.4881970E+06  0.3141593E+01  0.1860838E-01  0.1442526E+01  0.1506892E+05 -0.1570796E+01  0.1612640E+00  0.1688491E+01  0.2446071E+07  0.3141593E+01  0.2791816E-02  0.2864794E+01
  0.1905000E+01  0.4677193E+06  0.3141593E+01  0.1553740E-01  0.1213635E+01  0.1198208E+05 -0.1570796E+01  0.1365160E+00 -0.1752532E+01  0.2379840E+07 -0.3141593E+01  0.6046563E-02 -0.1468934E+00
  0.1952500E+01  0.4456465E+06  0.3141593E+01  0.6908373E-02  0.2271756E+01  0.9439673E+04 -0.1570796E+01  0.9505994E-01 -0.1576414E+01  0.2301630E+07  0.3141593E+01  0.8301679E-02  0.1470482E-01
  0.2000000E+01  0.4221244E+06  0.3141593E+01  0.8873481E-02  0.1130222E+01  0.7364456E+04 -0.1570796E+01  0.2805204E-01  0.1790129E+01  0.2211832E+07 -0.3141593E+01  0.2729575E-02  0.1798535E+00
