 VARIABLES="Time (s)"
"AddedMass    1" "IRF    1"
"AddedMass    2" "IRF    2"
"AddedMass    3" "IRF    3"
"AddedMass    4" "IRF    4"
"AddedMass    5" "IRF    5"
"AddedMass    6" "IRF    6"
Zone t="DoF    1",I=   100,F=POINT
  0.0000000E+00  0.1096445E+07 -0.3294647E+06 -0.3671450E-02 -0.4250460E-03 -0.3192364E-01 -0.4686645E-02 -0.5518663E-02 -0.1242071E-02  0.3562815E+07 -0.1438625E+07 -0.3765722E-02 -0.6724217E-03
  0.1000000E+00  0.1096445E+07 -0.3258013E+06 -0.3671450E-02 -0.4204340E-03 -0.3192364E-01 -0.4676633E-02 -0.5518663E-02 -0.1229356E-02  0.3562815E+07 -0.1421946E+07 -0.3765722E-02 -0.6659371E-03
  0.2000000E+00  0.1096445E+07 -0.3149049E+06 -0.3671450E-02 -0.4067337E-03 -0.3192364E-01 -0.4646669E-02 -0.5518663E-02 -0.1191522E-02  0.3562815E+07 -0.1372349E+07 -0.3765722E-02 -0.6466188E-03
  0.3000000E+00  0.1096445E+07 -0.2970537E+06 -0.3671450E-02 -0.3843491E-03 -0.3192364E-01 -0.4596972E-02 -0.5518663E-02 -0.1129491E-02  0.3562815E+07 -0.1291142E+07 -0.3765722E-02 -0.6148694E-03
  0.4000000E+00  0.1096445E+07 -0.2727031E+06 -0.3671450E-02 -0.3539366E-03 -0.3192364E-01 -0.4527892E-02 -0.5518663E-02 -0.1044773E-02  0.3562815E+07 -0.1180462E+07 -0.3765722E-02 -0.5713497E-03
  0.5000000E+00  0.1096445E+07 -0.2424723E+06 -0.3671450E-02 -0.3163824E-03 -0.3192364E-01 -0.4439904E-02 -0.5518663E-02 -0.9394222E-03  0.3562815E+07 -0.1043214E+07 -0.3765722E-02 -0.5169643E-03
  0.6000000E+00  0.1096445E+07 -0.2071272E+06 -0.3671450E-02 -0.2727701E-03 -0.3192364E-01 -0.4333595E-02 -0.5518663E-02 -0.8159780E-03  0.3562815E+07 -0.8829899E+06 -0.3765722E-02 -0.4528405E-03
  0.7000000E+00  0.1096445E+07 -0.1675589E+06 -0.3671450E-02 -0.2243430E-03 -0.3192364E-01 -0.4209640E-02 -0.5518663E-02 -0.6773961E-03  0.3562815E+07 -0.7039605E+06 -0.3765722E-02 -0.3803037E-03
  0.8000000E+00  0.1096445E+07 -0.1247587E+06 -0.3671450E-02 -0.1724597E-03 -0.3192364E-01 -0.4068787E-02 -0.5518663E-02 -0.5269638E-03  0.3562815E+07 -0.5107597E+06 -0.3765722E-02 -0.3008467E-03
  0.9000000E+00  0.1096445E+07 -0.7979078E+05 -0.3671450E-02 -0.1185467E-03 -0.3192364E-01 -0.3911826E-02 -0.5518663E-02 -0.3682127E-03  0.3562815E+07 -0.3083522E+06 -0.3765722E-02 -0.2160976E-03
  0.1000000E+01  0.1096445E+07 -0.3376262E+05 -0.3671450E-02 -0.6404919E-04 -0.3192364E-01 -0.3739573E-02 -0.5518663E-02 -0.2048193E-03  0.3562815E+07 -0.1018926E+06 -0.3765722E-02 -0.1277827E-03
  0.1100000E+01  0.1096445E+07  0.1220528E+05 -0.3671450E-02 -0.1038111E-04 -0.3192364E-01 -0.3552848E-02 -0.5518663E-02 -0.4050706E-04  0.3562815E+07  0.1034202E+06 -0.3765722E-02 -0.3768854E-04
  0.1200000E+01  0.1096445E+07  0.5700974E+05 -0.3671450E-02  0.4112128E-04 -0.3192364E-01 -0.3352445E-02 -0.5518663E-02  0.1210529E-03  0.3562815E+07  0.3024862E+06 -0.3765722E-02  0.5237712E-04
  0.1300000E+01  0.1096445E+07  0.9959460E+05 -0.3671450E-02  0.8924376E-04 -0.3192364E-01 -0.3139126E-02 -0.5518663E-02  0.2763376E-03  0.3562815E+07  0.4904457E+06 -0.3765722E-02  0.1406252E-03
  0.1400000E+01  0.1096445E+07  0.1389785E+06 -0.3671450E-02  0.1329316E-03 -0.3192364E-01 -0.2913594E-02 -0.5518663E-02  0.4220631E-03  0.3562815E+07  0.6628109E+06 -0.3765722E-02  0.2253236E-03
  0.1500000E+01  0.1096445E+07  0.1742806E+06 -0.3671450E-02  0.1713218E-03 -0.3192364E-01 -0.2676484E-02 -0.5518663E-02  0.5552658E-03  0.3562815E+07  0.8155864E+06 -0.3765722E-02  0.3048340E-03
  0.1600000E+01  0.1096445E+07  0.2047423E+06 -0.3671450E-02  0.2037653E-03 -0.3192364E-01 -0.2428361E-02 -0.5518663E-02  0.6733715E-03  0.3562815E+07  0.9453711E+06 -0.3765722E-02  0.3776473E-03
  0.1700000E+01  0.1096445E+07  0.2297461E+06 -0.3671450E-02  0.2298428E-03 -0.3192364E-01 -0.2169717E-02 -0.5518663E-02  0.7742557E-03  0.3562815E+07  0.1049444E+07 -0.3765722E-02  0.4424133E-03
  0.1800000E+01  0.1096445E+07  0.2488293E+06 -0.3671450E-02  0.2493689E-03 -0.3192364E-01 -0.1900965E-02 -0.5518663E-02  0.8562856E-03  0.3562815E+07  0.1125829E+07 -0.3765722E-02  0.4979688E-03
  0.1900000E+01  0.1096445E+07  0.2616938E+06 -0.3671450E-02  0.2623892E-03 -0.3192364E-01 -0.1622461E-02 -0.5518663E-02  0.9183488E-03  0.3562815E+07  0.1173334E+07 -0.3765722E-02  0.5433598E-03
  0.2000000E+01  0.1096445E+07  0.2682106E+06 -0.3671450E-02  0.2691667E-03 -0.3192364E-01 -0.1334506E-02 -0.5518663E-02  0.9598672E-03  0.3562815E+07  0.1191570E+07 -0.3765722E-02  0.5778588E-03
  0.2100000E+01  0.1096445E+07  0.2684190E+06 -0.3671450E-02  0.2701611E-03 -0.3192364E-01 -0.1037369E-02 -0.5518663E-02  0.9807930E-03  0.3562815E+07  0.1180944E+07 -0.3765722E-02  0.6009768E-03
  0.2200000E+01  0.1096445E+07  0.2625220E+06 -0.3671450E-02  0.2659996E-03 -0.3192364E-01 -0.7313090E-03 -0.5518663E-02  0.9815914E-03  0.3562815E+07  0.1142630E+07 -0.3765722E-02  0.6124692E-03
  0.2300000E+01  0.1096445E+07  0.2508762E+06 -0.3671450E-02  0.2574428E-03 -0.3192364E-01 -0.4165982E-03 -0.5518663E-02  0.9632080E-03  0.3562815E+07  0.1078518E+07 -0.3765722E-02  0.6123368E-03
  0.2400000E+01  0.1096445E+07  0.2339779E+06 -0.3671450E-02  0.2453454E-03 -0.3192364E-01 -0.9354878E-04 -0.5518663E-02  0.9270232E-03  0.3562815E+07  0.9911378E+06 -0.3765722E-02  0.6008204E-03
  0.2500000E+01  0.1096445E+07  0.2124457E+06 -0.3671450E-02  0.2306145E-03 -0.3192364E-01  0.2374578E-03 -0.5518663E-02  0.8747982E-03  0.3562815E+07  0.8835799E+06 -0.3765722E-02  0.5783905E-03
  0.2600000E+01  0.1096445E+07  0.1869991E+06 -0.3671450E-02  0.2141665E-03 -0.3192364E-01  0.5759443E-03 -0.5518663E-02  0.8086085E-03  0.3562815E+07  0.7593829E+06 -0.3765722E-02  0.5457308E-03
  0.2700000E+01  0.1096445E+07  0.1584361E+06 -0.3671450E-02  0.1968857E-03 -0.3192364E-01  0.9213083E-03 -0.5518663E-02  0.7307728E-03  0.3562815E+07  0.6224244E+06 -0.3765722E-02  0.5037192E-03
  0.2800000E+01  0.1096445E+07  0.1276079E+06 -0.3671450E-02  0.1795840E-03 -0.3192364E-01  0.1272800E-02 -0.5518663E-02  0.6437769E-03  0.3562815E+07  0.4767978E+06 -0.3765722E-02  0.4534021E-03
  0.2900000E+01  0.1096445E+07  0.9539335E+05 -0.3671450E-02  0.1629667E-03 -0.3192364E-01  0.1629502E-02 -0.5518663E-02  0.5501971E-03  0.3562815E+07  0.3266879E+06 -0.3765722E-02  0.3959681E-03
  0.3000000E+01  0.1096445E+07  0.6267336E+05 -0.3671450E-02  0.1476035E-03 -0.3192364E-01  0.1990303E-02 -0.5518663E-02  0.4526243E-03  0.3562815E+07  0.1762482E+06 -0.3765722E-02  0.3327168E-03
  0.3100000E+01  0.1096445E+07  0.3030555E+05 -0.3671450E-02  0.1339059E-03 -0.3192364E-01  0.2353902E-02 -0.5518663E-02  0.3535881E-03  0.3562815E+07  0.2947867E+05 -0.3765722E-02  0.2650271E-03
  0.3200000E+01  0.1096445E+07 -0.8987318E+03 -0.3671450E-02  0.1221130E-03 -0.3192364E-01  0.2718786E-02 -0.5518663E-02  0.2554917E-03  0.3562815E+07 -0.1098828E+06 -0.3765722E-02  0.1943247E-03
  0.3300000E+01  0.1096445E+07 -0.3019651E+05 -0.3671450E-02  0.1122864E-03 -0.3192364E-01  0.3083240E-02 -0.5518663E-02  0.1605456E-03  0.3562815E+07 -0.2384631E+06 -0.3765722E-02  0.1220483E-03
  0.3400000E+01  0.1096445E+07 -0.5693145E+05 -0.3671450E-02  0.1043129E-03 -0.3192364E-01  0.3445352E-02 -0.5518663E-02  0.7072051E-04  0.3562815E+07 -0.3533398E+06 -0.3765722E-02  0.4961790E-04
  0.3500000E+01  0.1096445E+07 -0.8054923E+05 -0.3671450E-02  0.9791627E-04 -0.3192364E-01  0.3803022E-02 -0.5518663E-02 -0.1229699E-04  0.3562815E+07 -0.4521088E+06 -0.3765722E-02 -0.2159636E-04
  0.3600000E+01  0.1096445E+07 -0.1006098E+06 -0.3671450E-02  0.9267678E-04 -0.3192364E-01  0.4153990E-02 -0.5518663E-02 -0.8713920E-04  0.3562815E+07 -0.5329393E+06 -0.3765722E-02 -0.9030248E-04
  0.3700000E+01  0.1096445E+07 -0.1167947E+06 -0.3671450E-02  0.8805867E-04 -0.3192364E-01  0.4495847E-02 -0.5518663E-02 -0.1527728E-03  0.3562815E+07 -0.5946026E+06 -0.3765722E-02 -0.1553117E-03
  0.3800000E+01  0.1096445E+07 -0.1289118E+06 -0.3671450E-02  0.8344221E-04 -0.3192364E-01  0.4826084E-02 -0.5518663E-02 -0.2085128E-03  0.3562815E+07 -0.6364878E+06 -0.3765722E-02 -0.2155614E-03
  0.3900000E+01  0.1096445E+07 -0.1368948E+06 -0.3671450E-02  0.7816085E-04 -0.3192364E-01  0.5142120E-02 -0.5518663E-02 -0.2540160E-03  0.3562815E+07 -0.6585926E+06 -0.3765722E-02 -0.2701323E-03
  0.4000000E+01  0.1096445E+07 -0.1407992E+06 -0.3671450E-02  0.7154193E-04 -0.3192364E-01  0.5441332E-02 -0.5518663E-02 -0.2892737E-03  0.3562815E+07 -0.6614982E+06 -0.3765722E-02 -0.3182624E-03
  0.4100000E+01  0.1096445E+07 -0.1407955E+06 -0.3671450E-02  0.6294667E-04 -0.3192364E-01  0.5721109E-02 -0.5518663E-02 -0.3145863E-03  0.3562815E+07 -0.6463264E+06 -0.3765722E-02 -0.3593564E-03
  0.4200000E+01  0.1096445E+07 -0.1371577E+06 -0.3671450E-02  0.5181054E-04 -0.3192364E-01  0.5978895E-02 -0.5518663E-02 -0.3305339E-03  0.3562815E+07 -0.6146808E+06 -0.3765722E-02 -0.3929905E-03
  0.4300000E+01  0.1096445E+07 -0.1302503E+06 -0.3671450E-02  0.3768079E-04 -0.3192364E-01  0.6212222E-02 -0.5518663E-02 -0.3379413E-03  0.3562815E+07 -0.5685749E+06 -0.3765722E-02 -0.4189114E-03
  0.4400000E+01  0.1096445E+07 -0.1205124E+06 -0.3671450E-02  0.2024816E-04 -0.3192364E-01  0.6418758E-02 -0.5518663E-02 -0.3378347E-03  0.3562815E+07 -0.5103510E+06 -0.3765722E-02 -0.4370330E-03
  0.4500000E+01  0.1096445E+07 -0.1084401E+06 -0.3671450E-02 -0.6253873E-06 -0.3192364E-01  0.6596349E-02 -0.5518663E-02 -0.3313943E-03  0.3562815E+07 -0.4425902E+06 -0.3765722E-02 -0.4474285E-03
  0.4600000E+01  0.1096445E+07 -0.9456802E+05 -0.3671450E-02 -0.2488869E-04 -0.3192364E-01  0.6743050E-02 -0.5518663E-02 -0.3199100E-03  0.3562815E+07 -0.3680188E+06 -0.3765722E-02 -0.4503165E-03
  0.4700000E+01  0.1096445E+07 -0.7945085E+05 -0.3671450E-02 -0.5229012E-04 -0.3192364E-01  0.6857160E-02 -0.5518663E-02 -0.3047307E-03  0.3562815E+07 -0.2894148E+06 -0.3765722E-02 -0.4460483E-03
  0.4800000E+01  0.1096445E+07 -0.6364427E+05 -0.3671450E-02 -0.8237571E-04 -0.3192364E-01  0.6937243E-02 -0.5518663E-02 -0.2872167E-03  0.3562815E+07 -0.2095169E+06 -0.3765722E-02 -0.4350888E-03
  0.4900000E+01  0.1096445E+07 -0.4768697E+05 -0.3671450E-02 -0.1144985E-03 -0.3192364E-01  0.6982158E-02 -0.5518663E-02 -0.2687000E-03  0.3562815E+07 -0.1309344E+06 -0.3765722E-02 -0.4179972E-03
  0.5000000E+01  0.1096445E+07 -0.3208473E+05 -0.3671450E-02 -0.1478340E-03 -0.3192364E-01  0.6991061E-02 -0.5518663E-02 -0.2504354E-03  0.3562815E+07 -0.5607155E+05 -0.3765722E-02 -0.3954069E-03
  0.5100000E+01  0.1096445E+07 -0.1729542E+05 -0.3671450E-02 -0.1814082E-03 -0.3192364E-01  0.6963423E-02 -0.5518663E-02 -0.2335718E-03  0.3562815E+07  0.1294328E+05 -0.3765722E-02 -0.3680032E-03
  0.5200000E+01  0.1096445E+07 -0.3716918E+04 -0.3671450E-02 -0.2141306E-03 -0.3192364E-01  0.6899020E-02 -0.5518663E-02 -0.2191140E-03  0.3562815E+07  0.7431289E+05 -0.3765722E-02 -0.3365035E-03
  0.5300000E+01  0.1096445E+07  0.8322433E+04 -0.3671450E-02 -0.2448351E-03 -0.3192364E-01  0.6797948E-02 -0.5518663E-02 -0.2079052E-03  0.3562815E+07  0.1266143E+06 -0.3765722E-02 -0.3016363E-03
  0.5400000E+01  0.1096445E+07  0.1857096E+05 -0.3671450E-02 -0.2723264E-03 -0.3192364E-01  0.6660578E-02 -0.5518663E-02 -0.2006012E-03  0.3562815E+07  0.1688273E+06 -0.3765722E-02 -0.2641228E-03
  0.5500000E+01  0.1096445E+07  0.2685740E+05 -0.3671450E-02 -0.2954289E-03 -0.3192364E-01  0.6487567E-02 -0.5518663E-02 -0.1976616E-03  0.3562815E+07  0.2003478E+06 -0.3765722E-02 -0.2246595E-03
  0.5600000E+01  0.1096445E+07  0.3309171E+05 -0.3671450E-02 -0.3130380E-03 -0.3192364E-01  0.6279828E-02 -0.5518663E-02 -0.1993419E-03  0.3562815E+07  0.2209853E+06 -0.3765722E-02 -0.1839050E-03
  0.5700000E+01  0.1096445E+07  0.3726342E+05 -0.3671450E-02 -0.3241695E-03 -0.3192364E-01  0.6038498E-02 -0.5518663E-02 -0.2056913E-03  0.3562815E+07  0.2309477E+06 -0.3765722E-02 -0.1424664E-03
  0.5800000E+01  0.1096445E+07  0.3943678E+05 -0.3671450E-02 -0.3280062E-03 -0.3192364E-01  0.5764927E-02 -0.5518663E-02 -0.2165568E-03  0.3562815E+07  0.2308118E+06 -0.3765722E-02 -0.1008931E-03
  0.5900000E+01  0.1096445E+07  0.3974391E+05 -0.3671450E-02 -0.3239413E-03 -0.3192364E-01  0.5460631E-02 -0.5518663E-02 -0.2315956E-03  0.3562815E+07  0.2214823E+06 -0.3765722E-02 -0.5966940E-04
  0.6000000E+01  0.1096445E+07  0.3837573E+05 -0.3671450E-02 -0.3116133E-03 -0.3192364E-01  0.5127262E-02 -0.5518663E-02 -0.2502812E-03  0.3562815E+07  0.2041415E+06 -0.3765722E-02 -0.1921297E-04
  0.6100000E+01  0.1096445E+07  0.3557133E+05 -0.3671450E-02 -0.2909317E-03 -0.3192364E-01  0.4766599E-02 -0.5518663E-02 -0.2719266E-03  0.3562815E+07  0.1801913E+06 -0.3765722E-02  0.2012443E-04
  0.6200000E+01  0.1096445E+07  0.3160588E+05 -0.3671450E-02 -0.2620959E-03 -0.3192364E-01  0.4380498E-02 -0.5518663E-02 -0.2956993E-03  0.3562815E+07  0.1511885E+06 -0.3765722E-02  0.5805373E-04
  0.6300000E+01  0.1096445E+07  0.2677844E+05 -0.3671450E-02 -0.2256002E-03 -0.3192364E-01  0.3970883E-02 -0.5518663E-02 -0.3206414E-03  0.3562815E+07  0.1187810E+06 -0.3765722E-02  0.9434242E-04
  0.6400000E+01  0.1096445E+07  0.2139874E+05 -0.3671450E-02 -0.1822295E-03 -0.3192364E-01  0.3539710E-02 -0.5518663E-02 -0.3456972E-03  0.3562815E+07  0.8463881E+05 -0.3765722E-02  0.1288076E-03
  0.6500000E+01  0.1096445E+07  0.1577480E+05 -0.3671450E-02 -0.1330416E-03 -0.3192364E-01  0.3088960E-02 -0.5518663E-02 -0.3697346E-03  0.3562815E+07  0.5039095E+05 -0.3765722E-02  0.1613036E-03
  0.6600000E+01  0.1096445E+07  0.1020104E+05 -0.3671450E-02 -0.7934096E-04 -0.3192364E-01  0.2620626E-02 -0.5518663E-02 -0.3915682E-03  0.3562815E+07  0.1756532E+05 -0.3765722E-02  0.1917152E-03
  0.6700000E+01  0.1096445E+07  0.4947474E+04 -0.3671450E-02 -0.2263836E-04 -0.3192364E-01  0.2136692E-02 -0.5518663E-02 -0.4099871E-03  0.3562815E+07 -0.1246474E+05 -0.3765722E-02  0.2199441E-03
  0.6800000E+01  0.1096445E+07  0.2505198E+03 -0.3671450E-02  0.3539467E-04 -0.3192364E-01  0.1639146E-02 -0.5518663E-02 -0.4237808E-03  0.3562815E+07 -0.3852570E+05 -0.3765722E-02  0.2458983E-03
  0.6900000E+01  0.1096445E+07 -0.3694838E+04 -0.3671450E-02  0.9298243E-04 -0.3192364E-01  0.1129966E-02 -0.5518663E-02 -0.4317624E-03  0.3562815E+07 -0.5968039E+05 -0.3765722E-02  0.2694827E-03
  0.7000000E+01  0.1096445E+07 -0.6740372E+04 -0.3671450E-02  0.1483055E-03 -0.3192364E-01  0.6111277E-03 -0.5518663E-02 -0.4327981E-03  0.3562815E+07 -0.7525266E+05 -0.3765722E-02  0.2905895E-03
  0.7100000E+01  0.1096445E+07 -0.8788407E+04 -0.3671450E-02  0.1995651E-03 -0.3192364E-01  0.8461800E-04 -0.5518663E-02 -0.4258330E-03  0.3562815E+07 -0.8484227E+05 -0.3765722E-02  0.3090916E-03
  0.7200000E+01  0.1096445E+07 -0.9793041E+04 -0.3671450E-02  0.2450490E-03 -0.3192364E-01 -0.4475649E-03 -0.5518663E-02 -0.4099131E-03  0.3562815E+07 -0.8832777E+05 -0.3765722E-02  0.3248368E-03
  0.7300000E+01  0.1096445E+07 -0.9759486E+04 -0.3671450E-02  0.2831952E-03 -0.3192364E-01 -0.9833861E-03 -0.5518663E-02 -0.3842206E-03  0.3562815E+07 -0.8585868E+05 -0.3765722E-02  0.3376452E-03
  0.7400000E+01  0.1096445E+07 -0.8741421E+04 -0.3671450E-02  0.3126535E-03 -0.3192364E-01 -0.1520771E-02 -0.5518663E-02 -0.3480880E-03  0.3562815E+07 -0.7783779E+05 -0.3765722E-02  0.3473105E-03
  0.7500000E+01  0.1096445E+07 -0.6836298E+04 -0.3671450E-02  0.3323384E-03 -0.3192364E-01 -0.2057589E-02 -0.5518663E-02 -0.3010338E-03  0.3562815E+07 -0.6489366E+05 -0.3765722E-02  0.3536019E-03
  0.7600000E+01  0.1096445E+07 -0.4179467E+04 -0.3671450E-02  0.3414763E-03 -0.3192364E-01 -0.2591644E-02 -0.5518663E-02 -0.2427844E-03  0.3562815E+07 -0.4784598E+05 -0.3765722E-02  0.3562690E-03
  0.7700000E+01  0.1096445E+07 -0.9366896E+03 -0.3671450E-02  0.3396403E-03 -0.3192364E-01 -0.3120656E-02 -0.5518663E-02 -0.1732901E-03  0.3562815E+07 -0.2766439E+05 -0.3765722E-02  0.3550521E-03
  0.7800000E+01  0.1096445E+07  0.2704310E+04 -0.3671450E-02  0.3267739E-03 -0.3192364E-01 -0.3642255E-02 -0.5518663E-02 -0.9276461E-04  0.3562815E+07 -0.5422279E+04 -0.3765722E-02  0.3496913E-03
  0.7900000E+01  0.1096445E+07  0.6542607E+04 -0.3671450E-02  0.3032028E-03 -0.3192364E-01 -0.4153982E-02 -0.5518663E-02 -0.1686759E-05  0.3562815E+07  0.1775084E+05 -0.3765722E-02  0.3399392E-03
  0.8000000E+01  0.1096445E+07  0.1037320E+05 -0.3671450E-02  0.2696294E-03 -0.3192364E-01 -0.4653294E-02 -0.5518663E-02  0.9917386E-04  0.3562815E+07  0.4071834E+05 -0.3765722E-02  0.3255767E-03
  0.8100000E+01  0.1096445E+07  0.1399610E+05 -0.3671450E-02  0.2271183E-03 -0.3192364E-01 -0.5137557E-02 -0.5518663E-02  0.2087490E-03  0.3562815E+07  0.6238387E+05 -0.3765722E-02  0.3064261E-03
  0.8200000E+01  0.1096445E+07  0.1722474E+05 -0.3671450E-02  0.1770654E-03 -0.3192364E-01 -0.5604048E-02 -0.5518663E-02  0.3256588E-03  0.3562815E+07  0.8173554E+05 -0.3765722E-02  0.2823691E-03
  0.8300000E+01  0.1096445E+07  0.1989378E+05 -0.3671450E-02  0.1211521E-03 -0.3192364E-01 -0.6050011E-02 -0.5518663E-02  0.4482215E-03  0.3562815E+07  0.9788640E+05 -0.3765722E-02  0.2533599E-03
  0.8400001E+01  0.1096445E+07  0.2186553E+05 -0.3671450E-02  0.6129497E-04 -0.3192364E-01 -0.6472631E-02 -0.5518663E-02  0.5744525E-03  0.3562815E+07  0.1101068E+06 -0.3765722E-02  0.2194421E-03
  0.8500000E+01  0.1096445E+07  0.2303514E+05 -0.3671450E-02 -0.4211570E-06 -0.3192364E-01 -0.6869076E-02 -0.5518663E-02  0.7020786E-03  0.3562815E+07  0.1178505E+06 -0.3765722E-02  0.1807596E-03
  0.8600000E+01  0.1096445E+07  0.2333465E+05 -0.3671450E-02 -0.6181472E-04 -0.3192364E-01 -0.7236551E-02 -0.5518663E-02  0.8285664E-03  0.3562815E+07  0.1207743E+06 -0.3765722E-02  0.1375685E-03
  0.8700000E+01  0.1096445E+07  0.2273485E+05 -0.3671450E-02 -0.1206817E-03 -0.3192364E-01 -0.7572293E-02 -0.5518663E-02  0.9511507E-03  0.3562815E+07  0.1187456E+06 -0.3765722E-02  0.9024460E-04
  0.8800000E+01  0.1096445E+07  0.2124594E+05 -0.3671450E-02 -0.1748770E-03 -0.3192364E-01 -0.7873650E-02 -0.5518663E-02  0.1066884E-02  0.3562815E+07  0.1118445E+06 -0.3765722E-02  0.3928747E-04
  0.8900001E+01  0.1096445E+07  0.1891627E+05 -0.3671450E-02 -0.2223885E-03 -0.3192364E-01 -0.8138079E-02 -0.5518663E-02  0.1172681E-02  0.3562815E+07  0.1003552E+06 -0.3765722E-02 -0.1467768E-04
  0.9000000E+01  0.1096445E+07  0.1582993E+05 -0.3671450E-02 -0.2614144E-03 -0.3192364E-01 -0.8363228E-02 -0.5518663E-02  0.1265381E-02  0.3562815E+07  0.8475064E+05 -0.3765722E-02 -0.7090376E-04
  0.9100000E+01  0.1096445E+07  0.1210232E+05 -0.3671450E-02 -0.2904305E-03 -0.3192364E-01 -0.8546948E-02 -0.5518663E-02  0.1341830E-02  0.3562815E+07  0.6566896E+05 -0.3765722E-02 -0.1285316E-03
  0.9200000E+01  0.1096445E+07  0.7875262E+04 -0.3671450E-02 -0.3082478E-03 -0.3192364E-01 -0.8687350E-02 -0.5518663E-02  0.1398945E-02  0.3562815E+07  0.4388495E+05 -0.3765722E-02 -0.1865975E-03
  0.9300000E+01  0.1096445E+07  0.3310536E+04 -0.3671450E-02 -0.3140617E-03 -0.3192364E-01 -0.8782848E-02 -0.5518663E-02  0.1433807E-02  0.3562815E+07  0.2027542E+05 -0.3765722E-02 -0.2440536E-03
  0.9400001E+01  0.1096445E+07 -0.1416841E+04 -0.3671450E-02 -0.3074861E-03 -0.3192364E-01 -0.8832168E-02 -0.5518663E-02  0.1443745E-02  0.3562815E+07 -0.4217014E+04 -0.3765722E-02 -0.2997840E-03
  0.9500000E+01  0.1096445E+07 -0.6125960E+04 -0.3671450E-02 -0.2885742E-03 -0.3192364E-01 -0.8834427E-02 -0.5518663E-02  0.1426434E-02  0.3562815E+07 -0.2862379E+05 -0.3765722E-02 -0.3526312E-03
  0.9600000E+01  0.1096445E+07 -0.1063771E+05 -0.3671450E-02 -0.2578223E-03 -0.3192364E-01 -0.8789103E-02 -0.5518663E-02  0.1379982E-02  0.3562815E+07 -0.5199105E+05 -0.3765722E-02 -0.4014206E-03
  0.9700000E+01  0.1096445E+07 -0.1478147E+05 -0.3671450E-02 -0.2161602E-03 -0.3192364E-01 -0.8696117E-02 -0.5518663E-02  0.1303016E-02  0.3562815E+07 -0.7341473E+05 -0.3765722E-02 -0.4449902E-03
  0.9800000E+01  0.1096445E+07 -0.1840238E+05 -0.3671450E-02 -0.1649224E-03 -0.3192364E-01 -0.8555793E-02 -0.5518663E-02  0.1194767E-02  0.3562815E+07 -0.9207911E+05 -0.3765722E-02 -0.4822196E-03
  0.9900001E+01  0.1096445E+07 -0.2136690E+05 -0.3671450E-02 -0.1058081E-03 -0.3192364E-01 -0.8368906E-02 -0.5518663E-02  0.1055140E-02  0.3562815E+07 -0.1072855E+06 -0.3765722E-02 -0.5120624E-03
Zone t="DoF    2",I=   100,F=POINT
  0.0000000E+00  0.5231752E-02 -0.2102126E-03  0.1096445E+07 -0.3294648E+06  0.8201764E-03 -0.1329019E-03 -0.3562815E+07  0.1438625E+07  0.3862891E-02 -0.1377038E-02 -0.2052859E-02  0.6264903E-03
  0.1000000E+00  0.5231752E-02 -0.2020452E-03  0.1096445E+07 -0.3258014E+06  0.8201764E-03 -0.1312600E-03 -0.3562815E+07  0.1421946E+07  0.3862891E-02 -0.1362614E-02 -0.2052859E-02  0.6152266E-03
  0.2000000E+00  0.5231752E-02 -0.1778833E-03  0.1096445E+07 -0.3149049E+06  0.8201764E-03 -0.1263700E-03 -0.3562815E+07  0.1372349E+07  0.3862891E-02 -0.1319760E-02 -0.2052859E-02  0.5817798E-03
  0.3000000E+00  0.5231752E-02 -0.1387345E-03  0.1096445E+07 -0.2970537E+06  0.8201764E-03 -0.1183386E-03 -0.3562815E+07  0.1291142E+07  0.3862891E-02 -0.1249716E-02 -0.2052859E-02  0.5271733E-03
  0.4000000E+00  0.5231752E-02 -0.8623842E-04  0.1096445E+07 -0.2727032E+06  0.8201764E-03 -0.1073408E-03 -0.3562815E+07  0.1180462E+07  0.3862891E-02 -0.1154507E-02 -0.2052859E-02  0.4530789E-03
  0.5000000E+00  0.5231752E-02 -0.2260538E-04  0.1096445E+07 -0.2424723E+06  0.8201764E-03 -0.9361706E-04 -0.3562815E+07  0.1043214E+07  0.3862891E-02 -0.1036878E-02 -0.2052859E-02  0.3617676E-03
  0.6000000E+00  0.5231752E-02  0.4946301E-04  0.1096445E+07 -0.2071272E+06  0.8201764E-03 -0.7746786E-04 -0.3562815E+07  0.8829900E+06  0.3862891E-02 -0.9002074E-03 -0.2052859E-02  0.2560425E-03
  0.7000000E+00  0.5231752E-02  0.1268729E-03  0.1096445E+07 -0.1675589E+06  0.8201764E-03 -0.5924784E-04 -0.3562815E+07  0.7039606E+06  0.3862891E-02 -0.7484059E-03 -0.2052859E-02  0.1391564E-03
  0.8000000E+00  0.5231752E-02  0.2062523E-03  0.1096445E+07 -0.1247587E+06  0.8201764E-03 -0.3935850E-04 -0.3562815E+07  0.5107598E+06  0.3862891E-02 -0.5857898E-03 -0.2052859E-02  0.1471440E-04
  0.9000000E+00  0.5231752E-02  0.2840743E-03  0.1096445E+07 -0.7979079E+05  0.8201764E-03 -0.1824011E-04 -0.3562815E+07  0.3083523E+06  0.3862891E-02 -0.4169471E-03 -0.2052859E-02 -0.1134305E-03
  0.1000000E+01  0.5231752E-02  0.3567881E-03  0.1096445E+07 -0.3376262E+05  0.8201764E-03  0.3637584E-05 -0.3562815E+07  0.1018926E+06  0.3862891E-02 -0.2465948E-03 -0.2052859E-02 -0.2412923E-03
  0.1100000E+01  0.5231752E-02  0.4209515E-03  0.1096445E+07  0.1220528E+05  0.8201764E-03  0.2578502E-04 -0.3562815E+07 -0.1034202E+06  0.3862891E-02 -0.7942784E-04 -0.2052859E-02 -0.3648696E-03
  0.1200000E+01  0.5231752E-02  0.4733599E-03  0.1096445E+07  0.5700976E+05  0.8201764E-03  0.4770300E-04 -0.3562815E+07 -0.3024862E+06  0.3862891E-02  0.8002534E-04 -0.2052859E-02 -0.4802623E-03
  0.1300000E+01  0.5231752E-02  0.5111693E-03  0.1096445E+07  0.9959462E+05  0.8201764E-03  0.6889329E-04 -0.3562815E+07 -0.4904457E+06  0.3862891E-02  0.2275493E-03 -0.2052859E-02 -0.5837877E-03
  0.1400000E+01  0.5231752E-02  0.5320056E-03  0.1096445E+07  0.1389786E+06  0.8201764E-03  0.8886913E-04 -0.3562815E+07 -0.6628110E+06  0.3862891E-02  0.3593727E-03 -0.2052859E-02 -0.6720885E-03
  0.1500000E+01  0.5231752E-02  0.5340610E-03  0.1096445E+07  0.1742806E+06  0.8201764E-03  0.1071659E-03 -0.3562815E+07 -0.8155866E+06  0.3862891E-02  0.4722902E-03 -0.2052859E-02 -0.7422315E-03
  0.1600000E+01  0.5231752E-02  0.5161680E-03  0.1096445E+07  0.2047423E+06  0.8201764E-03  0.1233510E-03 -0.3562815E+07 -0.9453712E+06  0.3862891E-02  0.5637631E-03 -0.2052859E-02 -0.7917940E-03
  0.1700000E+01  0.5231752E-02  0.4778549E-03  0.1096445E+07  0.2297461E+06  0.8201764E-03  0.1370337E-03 -0.3562815E+07 -0.1049444E+07  0.3862891E-02  0.6320029E-03 -0.2052859E-02 -0.8189353E-03
  0.1800000E+01  0.5231752E-02  0.4193751E-03  0.1096445E+07  0.2488293E+06  0.8201764E-03  0.1478736E-03 -0.3562815E+07 -0.1125829E+07  0.3862891E-02  0.6760285E-03 -0.2052859E-02 -0.8224522E-03
  0.1900000E+01  0.5231752E-02  0.3417136E-03  0.1096445E+07  0.2616939E+06  0.8201764E-03  0.1555889E-03 -0.3562815E+07 -0.1173334E+07  0.3862891E-02  0.6956979E-03 -0.2052859E-02 -0.8018134E-03
  0.2000000E+01  0.5231752E-02  0.2465654E-03  0.1096445E+07  0.2682106E+06  0.8201764E-03  0.1599628E-03 -0.3562815E+07 -0.1191570E+07  0.3862891E-02  0.6917156E-03 -0.2052859E-02 -0.7571781E-03
  0.2100000E+01  0.5231752E-02  0.1362925E-03  0.1096445E+07  0.2684190E+06  0.8201764E-03  0.1608491E-03 -0.3562815E+07 -0.1180945E+07  0.3862891E-02  0.6656096E-03 -0.2052859E-02 -0.6893910E-03
  0.2200000E+01  0.5231752E-02  0.1385451E-04  0.1096445E+07  0.2625220E+06  0.8201764E-03  0.1581760E-03 -0.3562815E+07 -0.1142630E+07  0.3862891E-02  0.6196837E-03 -0.2052859E-02 -0.5999621E-03
  0.2300000E+01  0.5231752E-02 -0.1172803E-03  0.1096445E+07  0.2508762E+06  0.8201764E-03  0.1519486E-03 -0.3562815E+07 -0.1078518E+07  0.3862891E-02  0.5569426E-03 -0.2052859E-02 -0.4910228E-03
  0.2400000E+01  0.5231752E-02 -0.2532435E-03  0.1096445E+07  0.2339780E+06  0.8201764E-03  0.1422499E-03 -0.3562815E+07 -0.9911379E+06  0.3862891E-02  0.4809939E-03 -0.2052859E-02 -0.3652680E-03
  0.2500000E+01  0.5231752E-02 -0.3898871E-03  0.1096445E+07  0.2124457E+06  0.8201764E-03  0.1292399E-03 -0.3562815E+07 -0.8835801E+06  0.3862891E-02  0.3959296E-03 -0.2052859E-02 -0.2258820E-03
  0.2600000E+01  0.5231752E-02 -0.5229196E-03  0.1096445E+07  0.1869992E+06  0.8201764E-03  0.1131525E-03 -0.3562815E+07 -0.7593831E+06  0.3862891E-02  0.3061891E-03 -0.2052859E-02 -0.7644816E-04
  0.2700000E+01  0.5231752E-02 -0.6480434E-03  0.1096445E+07  0.1584361E+06  0.8201764E-03  0.9429220E-04 -0.3562815E+07 -0.6224244E+06  0.3862891E-02  0.2164087E-03 -0.2052859E-02  0.7914765E-04
  0.2800000E+01  0.5231752E-02 -0.7610975E-03  0.1096445E+07  0.1276080E+06  0.8201764E-03  0.7302730E-04 -0.3562815E+07 -0.4767980E+06  0.3862891E-02  0.1312662E-03 -0.2052859E-02  0.2368257E-03
  0.2900000E+01  0.5231752E-02 -0.8581962E-03  0.1096445E+07  0.9539339E+05  0.8201764E-03  0.4978332E-04 -0.3562815E+07 -0.3266881E+06  0.3862891E-02  0.5531326E-04 -0.2052859E-02  0.3924246E-03
  0.3000000E+01  0.5231752E-02 -0.9358580E-03  0.1096445E+07  0.6267338E+05  0.8201764E-03  0.2503402E-04 -0.3562815E+07 -0.1762483E+06  0.3862891E-02 -0.7183519E-05 -0.2052859E-02  0.5418130E-03
  0.3100000E+01  0.5231752E-02 -0.9911266E-03  0.1096445E+07  0.3030557E+05  0.8201764E-03 -0.7085655E-06 -0.3562815E+07 -0.2947879E+05  0.3862891E-02 -0.5239963E-04 -0.2052859E-02  0.6810043E-03
  0.3200000E+01  0.5231752E-02 -0.1021672E-02  0.1096445E+07 -0.8987355E+03  0.8201764E-03 -0.2690481E-04 -0.3562815E+07  0.1098827E+06  0.3862891E-02 -0.7709512E-04 -0.2052859E-02  0.8062613E-03
  0.3300000E+01  0.5231752E-02 -0.1025875E-02  0.1096445E+07 -0.3019651E+05  0.8201764E-03 -0.5299922E-04 -0.3562815E+07  0.2384631E+06  0.3862891E-02 -0.7874876E-04 -0.2052859E-02  0.9141989E-03
  0.3400000E+01  0.5231752E-02 -0.1002886E-02  0.1096445E+07 -0.5693145E+05  0.8201764E-03 -0.7843289E-04 -0.3562815E+07  0.3533397E+06  0.3862891E-02 -0.5566061E-04 -0.2052859E-02  0.1001871E-02
  0.3500000E+01  0.5231752E-02 -0.9526639E-03  0.1096445E+07 -0.8054925E+05  0.8201764E-03 -0.1026553E-03 -0.3562815E+07  0.4521089E+06  0.3862891E-02 -0.7039862E-05 -0.2052859E-02  0.1066850E-02
  0.3600000E+01  0.5231752E-02 -0.8759861E-03  0.1096445E+07 -0.1006098E+06  0.8201764E-03 -0.1251371E-03 -0.3562815E+07  0.5329392E+06  0.3862891E-02  0.6693554E-04 -0.2052859E-02  0.1107285E-02
  0.3700000E+01  0.5231752E-02 -0.7744334E-03  0.1096445E+07 -0.1167947E+06  0.8201764E-03 -0.1453820E-03 -0.3562815E+07  0.5946028E+06  0.3862891E-02  0.1650965E-03 -0.2052859E-02  0.1121952E-02
  0.3800000E+01  0.5231752E-02 -0.6503477E-03  0.1096445E+07 -0.1289118E+06  0.8201764E-03 -0.1629382E-03 -0.3562815E+07  0.6364878E+06  0.3862891E-02  0.2852821E-03 -0.2052859E-02  0.1110282E-02
  0.3900000E+01  0.5231752E-02 -0.5067674E-03  0.1096445E+07 -0.1368948E+06  0.8201764E-03 -0.1774091E-03 -0.3562815E+07  0.6585927E+06  0.3862891E-02  0.4243753E-03 -0.2052859E-02  0.1072371E-02
  0.4000000E+01  0.5231752E-02 -0.3473414E-03  0.1096445E+07 -0.1407992E+06  0.8201764E-03 -0.1884621E-03 -0.3562815E+07  0.6614983E+06  0.3862891E-02  0.5783679E-03 -0.2052859E-02  0.1008974E-02
  0.4100000E+01  0.5231752E-02 -0.1762191E-03  0.1096445E+07 -0.1407955E+06  0.8201764E-03 -0.1958372E-03 -0.3562815E+07  0.6463266E+06  0.3862891E-02  0.7424620E-03 -0.2052859E-02  0.9214809E-03
  0.4200000E+01  0.5231752E-02  0.2071897E-05  0.1096445E+07 -0.1371577E+06  0.8201764E-03 -0.1993529E-03 -0.3562815E+07  0.6146808E+06  0.3862891E-02  0.9111899E-03 -0.2052859E-02  0.8118775E-03
  0.4300000E+01  0.5231752E-02  0.1827592E-03  0.1096445E+07 -0.1302503E+06  0.8201764E-03 -0.1989112E-03 -0.3562815E+07  0.5685750E+06  0.3862891E-02  0.1078567E-02 -0.2052859E-02  0.6826899E-03
  0.4400000E+01  0.5231752E-02  0.3609728E-03  0.1096445E+07 -0.1205124E+06  0.8201764E-03 -0.1945000E-03 -0.3562815E+07  0.5103511E+06  0.3862891E-02  0.1238262E-02 -0.2052859E-02  0.5369155E-03
  0.4500000E+01  0.5231752E-02  0.5318888E-03  0.1096445E+07 -0.1084401E+06  0.8201764E-03 -0.1861937E-03 -0.3562815E+07  0.4425902E+06  0.3862891E-02  0.1383784E-02 -0.2052859E-02  0.3779452E-03
  0.4600000E+01  0.5231752E-02  0.6908751E-03  0.1096445E+07 -0.9456806E+05  0.8201764E-03 -0.1741525E-03 -0.3562815E+07  0.3680189E+06  0.3862891E-02  0.1508681E-02 -0.2052859E-02  0.2094728E-03
  0.4700000E+01  0.5231752E-02  0.8336314E-03  0.1096445E+07 -0.7945087E+05  0.8201764E-03 -0.1586183E-03 -0.3562815E+07  0.2894150E+06  0.3862891E-02  0.1606743E-02 -0.2052859E-02  0.3540098E-04
  0.4800000E+01  0.5231752E-02  0.9563137E-03  0.1096445E+07 -0.6364425E+05  0.8201764E-03 -0.1399101E-03 -0.3562815E+07  0.2095169E+06  0.3862891E-02  0.1672212E-02 -0.2052859E-02 -0.1402529E-03
  0.4900000E+01  0.5231752E-02  0.1055654E-02  0.1096445E+07 -0.4768698E+05  0.8201764E-03 -0.1184164E-03 -0.3562815E+07  0.1309346E+06  0.3862891E-02  0.1699971E-02 -0.2052859E-02 -0.3134638E-03
  0.5000000E+01  0.5231752E-02  0.1129050E-02  0.1096445E+07 -0.3208475E+05  0.8201764E-03 -0.9458647E-04 -0.3562815E+07  0.5607171E+05  0.3862891E-02  0.1685734E-02 -0.2052859E-02 -0.4802906E-03