VARIABLES="w (rad/s)"
"A   1   1" "B   1   1"
"A   1   2" "B   1   2"
"A   1   3" "B   1   3"
"A   1   4" "B   1   4"
"A   1   5" "B   1   5"
"A   1   6" "B   1   6"
Zone t="Motion of body    1 in DoF   1",I=    41,F=POINT
  0.1000000E+00  0.5841458E+06  0.4910181E-01 -0.7972717E-02  0.1145963E-09 -0.3356934E-01 -0.9469384E-04  0.4959106E-02 -0.5384209E-09  0.1787093E+07  0.1514838E+00 -0.1029968E-01  0.2983143E-09
  0.1475000E+00  0.5897248E+06  0.7487350E+00 -0.1008632E-02  0.3783498E-08 -0.1665536E-01  0.1714379E-04 -0.5637994E-02  0.1117587E-07  0.1810327E+07  0.2322063E+01 -0.2068989E-02 -0.6752089E-08
  0.1950000E+00  0.5922517E+06  0.5215074E+01 -0.5399264E-02  0.3515743E-07 -0.2065805E-01 -0.5641468E-03 -0.1619779E-01  0.3632158E-07  0.1819668E+07  0.1622430E+02 -0.1330253E-02  0.2188608E-07
  0.2425000E+00  0.5958988E+06  0.2362271E+02 -0.3586602E-02 -0.1005828E-06  0.8557506E-02 -0.3494173E-03 -0.7173204E-02 -0.3427267E-06  0.1835107E+07  0.7375716E+02 -0.6921513E-03 -0.1527369E-06
  0.2900000E+00  0.6001433E+06  0.8105542E+02  0.2183585E-02 -0.5438924E-06 -0.1293314E+00 -0.3097177E-02 -0.6419215E-02 -0.7599592E-06  0.1851920E+07  0.2541937E+03 -0.1999428E-02 -0.2235174E-06
  0.3375000E+00  0.6052248E+06  0.2291569E+03 -0.6939923E-02  0.8046627E-06 -0.1053422E+00 -0.5489349E-02 -0.4521123E-02  0.5960464E-06  0.1870227E+07  0.7220364E+03 -0.1627604E-02  0.1847744E-05
  0.3850000E+00  0.6119249E+06  0.5618237E+03 -0.1731972E-01 -0.4857779E-05 -0.2790179E+00 -0.3263068E-01 -0.3963322E-01 -0.1907349E-05  0.1896825E+07  0.1780916E+04 -0.1426796E-02  0.1847744E-05
  0.4325000E+00  0.6198757E+06  0.1233656E+04  0.2116826E-03  0.2086163E-05 -0.4741691E-01 -0.1764297E-02  0.5503748E-02  0.6127357E-04  0.1927295E+07  0.3936331E+04  0.2822435E-03 -0.5722046E-05
  0.4800000E+00  0.6290528E+06  0.2481919E+04  0.4545848E-02  0.8106232E-05 -0.5467733E-02 -0.9061813E-02 -0.1322428E-01 -0.1983643E-03  0.1963008E+07  0.7978325E+04 -0.7629395E-03  0.7152557E-06
  0.5275000E+00  0.6398884E+06  0.4648983E+04  0.5496057E-03  0.5674362E-04  0.2522401E-01 -0.5121231E-02  0.2140570E-02 -0.2670288E-04  0.2003081E+07  0.1506015E+05  0.3239781E-02 -0.2336502E-04
  0.5750000E+00  0.6529136E+06  0.8210633E+04  0.2972147E-02 -0.1673698E-03  0.1831055E+00  0.8067703E-01 -0.1088018E-01 -0.1831055E-03  0.2056240E+07  0.2685380E+05 -0.2122962E-03 -0.2193451E-04
  0.6225000E+00  0.6665999E+06  0.1378006E+05  0.7206561E-02  0.1811981E-04  0.7637974E-01  0.6346893E-01  0.2049213E-01 -0.1716614E-03  0.2107838E+07  0.4548048E+05 -0.4608277E-02 -0.2117157E-03
  0.6700000E+00  0.6820729E+06  0.2213513E+05  0.4236022E-02 -0.2040863E-03  0.5848443E-01  0.3492737E-01  0.1138716E-01  0.8850098E-03  0.2169881E+07  0.7383114E+05  0.4008279E-02 -0.6484985E-04
  0.7175000E+00  0.6982572E+06  0.3420923E+05  0.4083188E-02  0.4196167E-04  0.4576574E-01  0.3340149E-01 -0.4508520E-02 -0.1113892E-02  0.2237730E+07  0.1154381E+06 -0.2381860E-02  0.4653931E-03
  0.7650000E+00  0.7142504E+06  0.5105980E+05  0.9374681E-02 -0.3623962E-03  0.3909441E-01  0.3384399E-01 -0.2513212E-01  0.3356934E-03  0.2304946E+07  0.1743515E+06  0.1755259E-02  0.1068115E-03
  0.8125000E+00  0.7288671E+06  0.7372820E+05 -0.2929688E-02  0.9880066E-03  0.9765625E-02  0.1033020E-01 -0.8263221E-03  0.5493164E-03  0.2367147E+07  0.2548040E+06 -0.8037861E-02 -0.4119873E-03
  0.8600000E+00  0.7418398E+06  0.1031921E+06 -0.5038949E-02 -0.6332397E-03  0.1078761E-01  0.3936768E-02 -0.1916220E-01  0.1525879E-02  0.2430596E+07  0.3615970E+06  0.6671284E-02 -0.3051758E-03
  0.9075000E+00  0.7510014E+06  0.1402450E+06 -0.1193801E-01  0.1464844E-02  0.2098399E-01 -0.1058960E-01 -0.1284597E-01 -0.2136230E-03  0.2482204E+07  0.4985169E+06 -0.2286717E-02  0.4882813E-03
  0.9550000E+00  0.7535434E+06  0.1849925E+06 -0.1917335E-02 -0.5340576E-03 -0.1278223E-02 -0.9704590E-02 -0.6710672E-02 -0.8361816E-02  0.2510402E+07  0.6672676E+06  0.1278223E-03  0.9155273E-04
  0.1002500E+01  0.7486619E+06  0.2368968E+06 -0.2983264E-02  0.1403809E-02 -0.7427719E-02 -0.6103516E-04  0.4261806E-01 -0.5920410E-02  0.2509765E+07  0.8669901E+06  0.5357699E-02  0.1312256E-02
  0.1050000E+01  0.7355667E+06  0.2939961E+06 -0.4650298E-03  0.2609253E-02 -0.7672992E-02 -0.1751709E-01 -0.2918062E-01  0.2496338E-01  0.2481852E+07  0.1093108E+07 -0.9068081E-02 -0.6713867E-03
  0.1097500E+01  0.7124787E+06  0.3537246E+06  0.1279097E-02  0.1831055E-03 -0.1379200E-01 -0.3424072E-01  0.7785806E-02 -0.5157471E-02  0.2416208E+07  0.1337137E+07  0.1445935E-02 -0.2807617E-02
  0.1145000E+01  0.6805258E+06  0.4131618E+06  0.4584300E-02 -0.1861572E-02 -0.1204711E-01  0.1263428E-01  0.8049178E-02  0.6195068E-02  0.2312930E+07  0.1587857E+07 -0.9595046E-03  0.4272461E-03
  0.1192500E+01  0.6412245E+06  0.4682513E+06  0.2354396E-02  0.1434326E-02 -0.1760679E-01  0.9887695E-02  0.1443347E-01  0.1855469E-01  0.2178390E+07  0.1830884E+07 -0.2559126E-02  0.4882813E-02
  0.1240000E+01  0.5960982E+06  0.5156126E+06  0.2116542E-02  0.4699707E-02 -0.1181326E-02 -0.1220703E-03 -0.1383135E-01  0.4455566E-02  0.2015717E+07  0.2051938E+07 -0.5709740E-02  0.1953125E-02
  0.1287500E+01  0.5484401E+06  0.5534749E+06 -0.7110892E-03  0.1342773E-02 -0.1469584E-01 -0.2319336E-02  0.4266535E-02 -0.5920410E-02  0.1836660E+07  0.2242384E+07 -0.6921268E-02  0.8911133E-02
  0.1335000E+01  0.5007553E+06  0.5801830E+06  0.6857883E-04 -0.3479004E-02  0.3200345E-02 -0.2441406E-03  0.1600173E-01 -0.5767822E-02  0.1650918E+07  0.2393569E+07 -0.3108907E-02  0.1586914E-02
  0.1382500E+01  0.4553347E+06  0.5958686E+06  0.8101230E-02 -0.2380371E-02  0.1130199E-01  0.8117676E-02 -0.1456897E-02  0.3356934E-02  0.1467646E+07  0.2503604E+07 -0.3708465E-02  0.5126953E-02
  0.1430000E+01  0.4131334E+06  0.6007151E+06 -0.9560752E-02  0.6408691E-02  0.1852396E-01  0.4516602E-02 -0.1148144E-01 -0.1150513E-01  0.1291044E+07  0.2571404E+07 -0.8536386E-03 -0.1831055E-02
  0.1477500E+01  0.3763872E+06  0.5973319E+06 -0.7435755E-03 -0.6103516E-03 -0.2065488E-02 -0.7690430E-02  0.1164935E-01 -0.1043701E-01  0.1131430E+07  0.2604982E+07  0.4709312E-02 -0.2563477E-02
  0.1525000E+01  0.3444275E+06  0.5863972E+06  0.5403112E-03  0.3784180E-02  0.1568904E-01 -0.1171875E-01  0.5002882E-02 -0.3128052E-01  0.9868797E+06  0.2605044E+07  0.5603228E-03 -0.2807617E-02
  0.1572500E+01  0.3179550E+06  0.5699658E+06 -0.2911057E-02 -0.1831055E-02  0.1047980E-01  0.5523682E-02 -0.4502434E-02  0.4147339E-01  0.8620044E+06  0.2579860E+07 -0.2367659E-02  0.5126953E-02
  0.1620000E+01  0.2963336E+06  0.5497489E+06  0.4577637E-02  0.7934570E-03  0.1062464E-01  0.1800537E-02 -0.6291896E-02  0.4290771E-01  0.7540396E+06  0.2533610E+07 -0.1582393E-02 -0.3295898E-02
  0.1667500E+01  0.2789085E+06  0.5263488E+06 -0.1299399E-02 -0.6713867E-03  0.1295739E-01  0.3295898E-02 -0.1683728E-02  0.9414673E-02  0.6621049E+06  0.2470922E+07  0.6222475E-03  0.4638672E-02
  0.1715000E+01  0.2656183E+06  0.5017943E+06 -0.1743862E-02 -0.3417969E-02  0.2533938E-01 -0.6530762E-02  0.3879202E-02 -0.2644348E-01  0.5867442E+06  0.2398743E+07 -0.1334588E-02 -0.2441406E-03
  0.1762500E+01  0.2555440E+06  0.4763944E+06  0.6467129E-02 -0.1220703E-02  0.2313276E-01  0.3997803E-02 -0.1073526E-02 -0.4425049E-02  0.5246211E+06  0.2318041E+07 -0.2372146E-02 -0.8544922E-03
  0.1810000E+01  0.2484970E+06  0.4507665E+06  0.6111946E-03 -0.2075195E-02  0.2239080E-01  0.2014160E-02  0.1146517E-02 -0.1146698E-01  0.4757423E+06  0.2232137E+07  0.2276173E-03  0.5126953E-02
  0.1857500E+01  0.2437153E+06  0.4265482E+06  0.3096939E-02  0.3662109E-03  0.1235490E-01  0.6408691E-03 -0.1117198E-02  0.7484436E-02  0.4366473E+06  0.2145330E+07  0.2489052E-02 -0.4882813E-03
  0.1905000E+01  0.2406608E+06  0.4011106E+06 -0.3813696E-02  0.2624512E-02  0.9419599E-02 -0.2449036E-02 -0.2050525E-02  0.4539490E-02  0.4052978E+06  0.2053268E+07 -0.8049912E-03 -0.2685547E-02
  0.1952500E+01  0.2393096E+06  0.3781808E+06 -0.1854597E-02  0.1831055E-02  0.2663352E-01  0.1258850E-02 -0.7189801E-03 -0.1735687E-02  0.3821982E+06  0.1966415E+07 -0.1232328E-02  0.2563477E-02
  0.2000000E+01  0.2391127E+06  0.3558177E+06  0.1029968E-03  0.6896973E-02  0.1153565E-01  0.4013062E-02  0.2105713E-02  0.9407043E-02  0.3653835E+06  0.1878540E+07  0.1012802E-02 -0.2563477E-02
Zone t="Motion of body    1 in DoF   2",I=    41,F=POINT
  0.1000000E+00  0.8850098E-02 -0.2073648E-09  0.5841463E+06  0.4919040E-01  0.5531311E-03 -0.2655725E-09 -0.1787093E+07 -0.1519883E+00  0.1335144E-01 -0.7712515E-09 -0.7877350E-02 -0.3513414E-06
  0.1475000E+00  0.2327612E-02 -0.1746230E-09  0.5897246E+06  0.7488756E+00  0.2094851E-02  0.2881279E-08 -0.1810327E+07 -0.2323412E+01  0.1065529E-01 -0.1769513E-07 -0.1465102E-01  0.1628214E-06
  0.1950000E+00  0.5242764E-02  0.1350418E-07  0.5922512E+06  0.5214712E+01  0.3032195E-02  0.1373701E-07 -0.1819667E+07 -0.1622128E+02 -0.1455454E-01  0.1098961E-06  0.9800838E-02 -0.3802474E-05
  0.2425000E+00  0.5600133E-02  0.3948808E-06  0.5958982E+06  0.2362289E+02  0.2878720E-02  0.1303852E-07 -0.1835106E+07 -0.7375934E+02  0.1220703E-01  0.2086163E-06  0.3649525E-02 -0.5587935E-08
  0.2900000E+00  0.7892477E-03 -0.4693866E-06  0.6001436E+06  0.8105750E+02  0.1328567E-02 -0.7264316E-06 -0.1851920E+07 -0.2542033E+03 -0.1683729E-01 -0.2592802E-05  0.4867028E-03 -0.3306195E-05
  0.3375000E+00  0.3752532E-02  0.2369285E-05  0.6052252E+06  0.2291577E+03 -0.7911965E-03  0.1639128E-06 -0.1870227E+07 -0.7220389E+03 -0.1003689E-01 -0.2980232E-06  0.3594293E-02  0.1721084E-05
  0.3850000E+00 -0.2417626E-02  0.1072884E-05  0.6119249E+06  0.5618243E+03 -0.4359654E-03  0.1505017E-04 -0.1896825E+07 -0.1780916E+04  0.6975447E-02 -0.1740456E-04 -0.5053236E-02  0.4053116E-05
  0.4325000E+00  0.6138796E-02  0.1192093E-04  0.6198768E+06  0.1233656E+04  0.2698953E-02 -0.1263618E-04 -0.1927298E+07 -0.3936330E+04  0.2956501E-01 -0.3933907E-04  0.1098986E-01  0.3328919E-04
  0.4800000E+00  0.2988180E-02 -0.2360344E-04  0.6290539E+06  0.2481922E+04 -0.1811981E-02  0.5102158E-04 -0.1963012E+07 -0.7978340E+04 -0.1080831E-01  0.5722046E-04 -0.1145999E-01 -0.4708767E-04
  0.5275000E+00 -0.2776955E-02  0.4768372E-06  0.6398882E+06  0.4648982E+04  0.2343056E-02 -0.9965897E-04 -0.2003081E+07 -0.1506017E+05 -0.4524123E-01 -0.1010895E-03  0.2603395E-02  0.2229214E-04
  0.5750000E+00  0.1162322E-01  0.8106232E-05  0.6529136E+06  0.8210630E+04  0.1724907E-02 -0.4863739E-04 -0.2056242E+07 -0.2685386E+05  0.4245924E-03 -0.2822876E-03 -0.3104832E-02 -0.3099442E-04
  0.6225000E+00 -0.4118035E-02 -0.1916885E-03  0.6665994E+06  0.1378006E+05 -0.2414443E-02  0.1239777E-04 -0.2107838E+07 -0.4548048E+05  0.1343264E-01 -0.1754761E-03  0.8187045E-02 -0.1144409E-03
  0.6700000E+00 -0.1079502E-01 -0.1506805E-03  0.6820731E+06  0.2213517E+05  0.6832294E-04 -0.1001358E-03 -0.2169880E+07 -0.7383117E+05 -0.2277431E-02  0.4463196E-03  0.5761901E-02  0.2861023E-04
  0.7175000E+00  0.1020797E-02  0.1373291E-03  0.6982575E+06  0.3420920E+05  0.1722595E-02 -0.1440048E-03 -0.2237729E+07 -0.1154379E+06 -0.5444251E-02 -0.1106262E-02  0.1063330E-03  0.3461838E-03
  0.7650000E+00  0.7419960E-02  0.8010864E-03  0.7142499E+06  0.5105979E+05 -0.7878722E-02  0.1583099E-03 -0.2304945E+07 -0.1743514E+06  0.6143408E-02 -0.1113892E-02 -0.2054451E-02  0.4997253E-03
  0.8125000E+00  0.8413462E-02  0.1197815E-02  0.7288661E+06  0.7372815E+05 -0.1145583E-02  0.1831055E-03 -0.2367146E+07 -0.2548039E+06  0.8563702E-02  0.4119873E-03  0.1915565E-02  0.1331329E-02
  0.8600000E+00 -0.1206509E-02 -0.3967285E-03  0.7418388E+06  0.1031921E+06  0.4222781E-02 -0.3890991E-03 -0.2430596E+07 -0.3615969E+06 -0.6742255E-02  0.3356934E-02 -0.4932492E-02  0.9193420E-03
  0.9075000E+00 -0.8070764E-03  0.6256104E-03  0.7510015E+06  0.1402450E+06 -0.1160172E-02  0.1296997E-03 -0.2482204E+07 -0.4985170E+06  0.1869727E-01  0.1602173E-02  0.1335039E-01 -0.3013611E-02
  0.9550000E+00 -0.5752004E-03  0.3204346E-03  0.7535434E+06  0.1849924E+06 -0.1102468E-02 -0.2212524E-03 -0.2510403E+07 -0.6672679E+06 -0.3636545E-01  0.1397705E-01  0.0000000E+00 -0.2136230E-02
  0.1002500E+01  0.5296816E-02 -0.2502441E-02  0.7486617E+06  0.2368968E+06  0.3683418E-02 -0.7171631E-03 -0.2509766E+07 -0.8669902E+06 -0.1035010E-02  0.6225586E-02  0.1105026E-01  0.2670288E-03
  0.1050000E+01  0.4708427E-02 -0.3967285E-03  0.7355668E+06  0.2939962E+06 -0.5580357E-02 -0.1754761E-03 -0.2481852E+07 -0.1093108E+07  0.1377651E-01  0.1275635E-01  0.3778367E-02  0.7713318E-02
  0.1097500E+01 -0.3392387E-02 -0.4089355E-02  0.7124788E+06  0.3537247E+06  0.9593226E-03 -0.1007080E-02 -0.2416209E+07 -0.1337138E+07  0.7674580E-02 -0.6164551E-02  0.3003097E-02 -0.3585815E-02
  0.1145000E+01 -0.8528930E-03 -0.4821777E-02  0.6805264E+06  0.4131619E+06 -0.2891840E-02 -0.1525879E-04 -0.2312932E+07 -0.1587856E+07  0.1140744E-01 -0.3967285E-03 -0.2665291E-04  0.9429932E-02
  0.1192500E+01  0.8905759E-02 -0.9155273E-03  0.6412250E+06  0.4682515E+06 -0.3506003E-02 -0.1182556E-02 -0.2178391E+07 -0.1830886E+07 -0.3316627E-01  0.2600098E-01 -0.5399756E-02 -0.2593994E-03
  0.1240000E+01  0.1378213E-02 -0.2563477E-02  0.5960987E+06  0.5156125E+06 -0.5537464E-03  0.3166199E-02 -0.2015716E+07 -0.2051938E+07 -0.5906628E-02  0.2673340E-01 -0.2121464E-01  0.3890991E-02
  0.1287500E+01 -0.3555446E-02 -0.3356934E-02  0.5484401E+06  0.5534751E+06 -0.3638406E-02  0.8468628E-03 -0.1836661E+07 -0.2242384E+07  0.1232555E-02 -0.1501465E-01  0.8770100E-03  0.1037598E-02
  0.1335000E+01  0.3657537E-03  0.0000000E+00  0.5007553E+06  0.5801831E+06 -0.2217382E-02  0.9841919E-03 -0.1650918E+07 -0.2393570E+07  0.1865344E-01 -0.3134155E-01  0.4126159E-02 -0.3662109E-03
  0.1382500E+01 -0.1765936E-02  0.6225586E-02  0.4553349E+06  0.5958689E+06 -0.5518549E-03 -0.6027222E-03 -0.1467645E+07 -0.2503605E+07  0.1717372E-01 -0.5664063E-01 -0.7681821E-02  0.5493164E-02
  0.1430000E+01 -0.2859689E-02 -0.5126953E-02  0.4131334E+06  0.6007153E+06  0.1173753E-02 -0.4043579E-03 -0.1291045E+07 -0.2571405E+07 -0.8109567E-02  0.2136230E-03  0.5527310E-02 -0.8361816E-02
  0.1477500E+01 -0.9088145E-03 -0.6225586E-02  0.3763870E+06  0.5973317E+06 -0.1404532E-02  0.1396179E-02 -0.1131430E+07 -0.2604983E+07 -0.1466496E-01  0.1937866E-01 -0.3108559E-02 -0.8728027E-02
  0.1525000E+01  0.9805649E-03 -0.9765625E-03  0.3444275E+06  0.5863969E+06  0.4902824E-03  0.1632690E-02 -0.9868799E+06 -0.2605044E+07 -0.4002305E-02 -0.2786255E-01  0.2941695E-02 -0.6164551E-02
  0.1572500E+01 -0.1455528E-02  0.1586914E-02  0.3179550E+06  0.5699662E+06 -0.2037740E-03  0.6866455E-04 -0.8620046E+06 -0.2579859E+07 -0.1901890E-02  0.3045654E-01 -0.1440973E-02 -0.1831055E-03
  0.1620000E+01  0.3767602E-02  0.5126953E-02  0.2963335E+06  0.5497488E+06 -0.1186795E-02  0.9346008E-03 -0.7540394E+06 -0.2533610E+07  0.8439429E-02 -0.1831055E-03  0.2868087E-02 -0.3479004E-02
  0.1667500E+01  0.2891621E-02  0.2075195E-02  0.2789084E+06  0.5263486E+06 -0.1454961E-02 -0.2479553E-03 -0.6621052E+06 -0.2470922E+07  0.3294251E-03  0.3161621E-01 -0.2090934E-02 -0.6835938E-02
  0.1715000E+01  0.3380956E-03  0.4150391E-02  0.2656184E+06  0.5017945E+06  0.2019676E-02  0.6828308E-03 -0.5867442E+06 -0.2398743E+07  0.3558901E-04  0.8361816E-02  0.2286594E-02 -0.1013184E-01
  0.1762500E+01  0.8917193E-03  0.2563477E-02  0.2555440E+06  0.4763944E+06 -0.6839400E-03 -0.1144409E-03 -0.5246210E+06 -0.2318042E+07  0.3774656E-02  0.4440308E-02  0.2573433E-02  0.1464844E-02
  0.1810000E+01  0.4678800E-03  0.5737305E-02  0.2484972E+06  0.4507668E+06  0.5901189E-03  0.2231598E-03 -0.4757424E+06 -0.2232137E+07  0.5058162E-03 -0.5668640E-02  0.2345723E-02  0.1010132E-01
  0.1857500E+01  0.4053950E-02  0.7324219E-03  0.2437152E+06  0.4265481E+06 -0.3532317E-03 -0.2555847E-03 -0.4366472E+06 -0.2145331E+07  0.2957289E-02  0.8483887E-02  0.8420059E-04 -0.7293701E-02
  0.1905000E+01  0.1898338E-02  0.4516602E-02  0.2406608E+06  0.4011108E+06 -0.4966115E-03 -0.1649857E-03 -0.4052981E+06 -0.2053268E+07  0.2563156E-02 -0.6866455E-03 -0.4194665E-02 -0.9155273E-04
  0.1952500E+01 -0.2257558E-02  0.2929688E-02  0.2393097E+06  0.3781810E+06 -0.1852155E-02 -0.2174377E-03 -0.3821985E+06 -0.1966415E+07 -0.1875600E-03 -0.9918213E-04  0.2203098E-02 -0.2014160E-02
  0.2000000E+01 -0.3147125E-03 -0.1220703E-03  0.2391125E+06  0.3558176E+06 -0.2182007E-02  0.6198883E-04 -0.3653834E+06 -0.1878540E+07  0.1647949E-02 -0.4169464E-02 -0.1986504E-02 -0.9155273E-03
Zone t="Motion of body    1 in DoF   3",I=    41,F=POINT
  0.1000000E+00 -0.1373291E-02  0.8940697E-04 -0.1387596E-02  0.1943111E-04  0.2777911E+06  0.3014296E+03  0.1142883E+00 -0.5934238E-03  0.3662109E-01  0.2079010E-03 -0.7629395E-04 -0.1192093E-06
  0.1475000E+00 -0.1086219E-01  0.1249313E-03 -0.3711248E-02 -0.8940697E-05  0.2797062E+06  0.9360742E+03 -0.4129701E+00 -0.1721382E-02 -0.8275954E-02  0.7019043E-03 -0.1422429E-03  0.3099442E-05
  0.1950000E+00 -0.1298953E-01 -0.2479553E-04  0.4875966E-02 -0.3757477E-03  0.2806811E+06  0.2066398E+04 -0.1532139E+00  0.7572174E-02  0.1302083E+00  0.1083374E-02 -0.1956255E-04  0.2384186E-05
  0.2425000E+00  0.2516914E-03  0.7247925E-04  0.1320593E-01  0.9365082E-03  0.2800560E+06  0.3748417E+04 -0.3001419E+00 -0.4928589E-02 -0.9564272E-01 -0.2075195E-02  0.2674221E-03 -0.3814697E-05
  0.2900000E+00  0.1331198E-01  0.5722046E-04  0.1841578E-02  0.7524490E-03  0.2792912E+06  0.5967660E+04 -0.2310917E+00  0.1846313E-02  0.1094424E+00  0.1708984E-02 -0.1710037E-03 -0.3814697E-05
  0.3375000E+00  0.1175944E+00  0.5645752E-03 -0.8714464E-02 -0.1822472E-02  0.2771678E+06  0.8643117E+04 -0.4692925E+00  0.1082611E-01  0.2936921E+00 -0.6103516E-02  0.0000000E+00 -0.2670288E-04
  0.3850000E+00  0.1429570E+00  0.1907349E-02 -0.3429760E-01 -0.2106667E-02  0.2735143E+06  0.1163874E+05  0.3424310E-01  0.4243469E-01  0.3170657E+00  0.1086426E-01  0.1981661E-04 -0.4196167E-04
  0.4325000E+00  0.4734635E-01  0.3936768E-02 -0.2942829E-01 -0.2304077E-02  0.2688902E+06  0.1477540E+05 -0.4839065E+00  0.1420593E-01  0.1840228E+00  0.7934570E-02  0.1587620E-03  0.3433228E-04
  0.4800000E+00  0.2883275E-01 -0.1464844E-02 -0.3997485E-02  0.9330750E-02  0.2639731E+06  0.1785177E+05  0.1618703E+00 -0.5819702E-01  0.1963298E+00 -0.2270508E-01 -0.6357829E-04  0.7629395E-05
  0.5275000E+00 -0.8171769E-01 -0.1220703E-03  0.2316299E-01  0.7877350E-03  0.2593290E+06  0.2067366E+05 -0.1260043E+00  0.1470947E-01 -0.4035842E+00 -0.1525879E-01 -0.1446331E-03  0.9918213E-04
  0.5750000E+00 -0.1581607E+00 -0.9185791E-02 -0.3203019E-01  0.6813049E-02  0.2528129E+06  0.2307876E+05 -0.1430876E+00 -0.3878784E-01 -0.4390285E+00 -0.4394531E-02  0.5307405E-04 -0.3051758E-04
  0.6225000E+00 -0.8843970E-01 -0.8270264E-02  0.3079334E-02  0.6473541E-02  0.2477378E+06  0.2490654E+05 -0.2600245E+00  0.4566956E-01 -0.8471385E-01  0.4162598E-01  0.1470727E-03 -0.1525879E-04
  0.6700000E+00 -0.7973287E-01 -0.6561279E-02 -0.4950566E-02 -0.6370544E-02  0.2420947E+06  0.2609338E+05 -0.7725047E-01  0.1846313E-01 -0.1428405E+00 -0.3662109E-03  0.2277431E-04 -0.2288818E-04
  0.7175000E+00 -0.5518684E-01  0.3814697E-02 -0.1398279E-02 -0.6034851E-02  0.2378389E+06  0.2658098E+05 -0.2412484E+00  0.1322327E+00  0.2177700E-01 -0.3100586E-01 -0.6379982E-04 -0.3051758E-04
  0.7650000E+00 -0.4230574E-01  0.1181030E-01  0.8347455E-02  0.4371643E-02  0.2331632E+06  0.2636091E+05 -0.1964295E+00  0.1547241E-01 -0.4467933E-01 -0.1550293E-01  0.8477105E-04 -0.2136230E-03
  0.8125000E+00 -0.4124099E-01  0.3906250E-02 -0.2042330E-03  0.1667404E-01  0.2308846E+06  0.2565708E+05 -0.5979567E-01 -0.3486633E-01 -0.1322115E-01  0.2075195E-02  0.3286509E-04 -0.7629395E-04
  0.8600000E+00 -0.2308335E-01  0.5615234E-02  0.7651573E-04  0.9986877E-02  0.2271663E+06  0.2411536E+05  0.2506700E+00  0.2433777E-01 -0.5564135E-01 -0.3100586E-01  0.5988187E-04 -0.4577637E-04
  0.9075000E+00 -0.1681935E-01  0.8331299E-02 -0.1914967E-02  0.1226044E-01  0.2255362E+06  0.2244316E+05  0.2055355E+00 -0.2604675E-01 -0.1614153E-01  0.2038574E-01  0.1050881E-05 -0.4577637E-04
  0.9550000E+00 -0.1709424E-01 -0.1068115E-01  0.1550345E-02 -0.3837585E-02  0.2246154E+06  0.2038316E+05  0.3972718E+00 -0.5807495E-01 -0.1942899E-01 -0.8422852E-01  0.1497918E-04  0.3051758E-04
  0.1002500E+01  0.7663641E-02 -0.3997803E-02  0.7477187E-03 -0.1716614E-02  0.2233159E+06  0.1783649E+05 -0.6624065E-01 -0.9442139E-01 -0.1558603E-01  0.2172852E-01  0.2473370E-04 -0.9155273E-04
  0.1050000E+01 -0.1098633E-01 -0.5493164E-03 -0.3482274E-02 -0.1622772E-01  0.2235578E+06  0.1578483E+05 -0.2534412E-01 -0.1475372E+00  0.2511161E-01  0.4028320E-02 -0.1816523E-04  0.1525879E-04
  0.1097500E+01 -0.1237387E-01 -0.1150513E-01  0.1216532E-02  0.7217407E-02  0.2241970E+06  0.1366227E+05  0.6028438E-01 -0.1234436E-01  0.2758400E-01  0.3363037E-01 -0.3128226E-04  0.6103516E-04
  0.1145000E+01 -0.1998968E-03 -0.8850098E-03  0.1387617E-02 -0.9544373E-02  0.2242468E+06  0.1095408E+05  0.1375290E-01  0.8888245E-01  0.1032001E+00  0.6701660E-01 -0.6663227E-05 -0.4577637E-04
  0.1192500E+01 -0.1740206E-02  0.7568359E-02  0.1322748E-02  0.1211166E-01  0.2250652E+06  0.9041695E+04 -0.1224286E+00 -0.9815979E-01 -0.4094602E-02  0.1782227E-01 -0.3198908E-04  0.0000000E+00
  0.1240000E+01 -0.1127181E-01  0.8117676E-02  0.4429971E-03 -0.6591797E-02  0.2265976E+06  0.8268855E+04  0.9952668E-01 -0.4888153E-01  0.3150202E-02  0.1165771E-01  0.6152738E-05  0.7629395E-04
  0.1287500E+01  0.8770100E-03 -0.7171631E-02  0.1558470E-02  0.2136230E-02  0.2273636E+06  0.5964547E+04  0.1156705E-01 -0.4615402E-01  0.7660801E-01  0.2075195E-02  0.1185149E-04 -0.1068115E-03
  0.1335000E+01 -0.4000431E-02 -0.6683350E-02 -0.5429157E-04  0.1098633E-02  0.2282396E+06  0.4256014E+04  0.1408152E+00 -0.3239441E-01  0.1463015E-02 -0.8911133E-02  0.2285961E-04 -0.7629395E-05
  0.1382500E+01 -0.1788010E-02 -0.1739502E-02 -0.2163271E-02  0.5756378E-02  0.2292854E+06  0.3404076E+04 -0.1183177E-01  0.2880478E-01  0.3249322E-01  0.4382324E-01  0.1103710E-04 -0.4577637E-04
  0.1430000E+01 -0.3393213E-02 -0.1516724E-01 -0.6031490E-02 -0.5092621E-02  0.2303683E+06  0.3400572E+04 -0.1526306E+00  0.1142120E-01  0.2731643E-01 -0.8436584E-01 -0.7469337E-04  0.7629395E-05
  0.1477500E+01 -0.8798977E-02 -0.1901245E-01 -0.5179210E-02  0.5111694E-02  0.2312957E+06  0.2214809E+04 -0.2387704E+00  0.4853439E-01  0.4230119E-01 -0.5751038E-01  0.3614603E-04  0.3814697E-04
  0.1525000E+01 -0.4382524E-02 -0.9460449E-03 -0.9030201E-03 -0.2386093E-02  0.2321229E+06  0.1350614E+04 -0.9317367E-01  0.1188755E-01 -0.2689549E-01 -0.1981354E-01 -0.5002882E-05  0.2288818E-04
  0.1572500E+01 -0.1125609E-01 -0.1678467E-03 -0.3655802E-02  0.2023697E-02  0.2328507E+06  0.1017797E+04  0.1400412E+00  0.1839638E-02 -0.1242051E-02  0.2031708E-01  0.4366585E-04 -0.1144409E-04
  0.1620000E+01 -0.4897883E-03 -0.7629395E-02  0.1853189E-02  0.1163483E-02  0.2334529E+06  0.1017994E+04 -0.4988305E-01 -0.1728439E-01  0.0000000E+00 -0.1945496E-01 -0.9419005E-05 -0.1525879E-04
  0.1667500E+01 -0.1782556E-01 -0.6896973E-02  0.9722617E-02 -0.1144409E-04  0.2339962E+06  0.9665739E+03  0.7100942E-01  0.2161694E-01  0.3162481E-01 -0.5087280E-01 -0.4575349E-05  0.0000000E+00
  0.1715000E+01  0.7829582E-03 -0.3036499E-02 -0.5000256E-02  0.2975464E-03  0.2346077E+06  0.6065640E+03 -0.2650670E+00 -0.2265930E-02 -0.3644315E-01 -0.2268600E-01  0.8897253E-05  0.0000000E+00
  0.1762500E+01 -0.1383463E-01 -0.8247375E-02 -0.1035217E-01  0.2298355E-03  0.2350244E+06  0.5029684E+03 -0.1507092E+00  0.4920959E-03  0.5208333E-01 -0.4137039E-01  0.0000000E+00 -0.3814697E-05
  0.1810000E+01 -0.2129486E-01 -0.5409241E-02  0.5254166E-02 -0.3137589E-03  0.2353565E+06  0.5806517E+03  0.8120037E-01 -0.1268911E-01  0.1100656E+00 -0.3331757E-01  0.9273297E-04  0.1144409E-04
  0.1857500E+01 -0.8165403E-02 -0.3185272E-02  0.5976188E-02  0.1348495E-02  0.2356689E+06  0.6283375E+03 -0.1489159E+00 -0.4732132E-02 -0.2418405E-01 -0.1655960E-01  0.3285877E-04 -0.5722046E-05
  0.1905000E+01 -0.1397721E-01 -0.3772736E-02 -0.4038974E-02 -0.4668236E-03  0.2360902E+06  0.4488985E+03 -0.3524340E-01 -0.1018047E-02 -0.4408628E-01 -0.1536942E-01  0.9611835E-04  0.3814697E-05
  0.1952500E+01 -0.1903734E-01 -0.8316040E-03  0.4581544E-03 -0.6699562E-03  0.2364207E+06  0.2641581E+03 -0.4363896E-01 -0.2889156E-02  0.4001280E-02 -0.1419449E-01  0.7815001E-05 -0.9536743E-06
  0.2000000E+01  0.4028320E-02 -0.2849579E-02  0.1739502E-02  0.1955032E-04  0.2365573E+06  0.3732600E+03 -0.5297852E-01 -0.2584934E-02 -0.5468750E-01 -0.1387405E-01 -0.1144409E-04 -0.1907349E-05
Zone t="Motion of body    1 in DoF   4",I=    41,F=POINT
  0.1000000E+00 -0.1266479E-01 -0.3783498E-09 -0.1784496E+07 -0.1520318E+00  0.6942749E-02 -0.2655725E-08  0.8143130E+07  0.4736508E+00 -0.3417969E-01 -0.9313226E-09 -0.9078979E-02 -0.1561813E-05
  0.1475000E+00  0.1613811E-01  0.3864989E-07 -0.1807627E+07 -0.2317588E+01  0.3827629E-02  0.2584420E-07  0.8230984E+07  0.7183756E+01  0.8482853E-01  0.3911555E-07 -0.8482853E-02  0.6877817E-06
  0.1950000E+00  0.9233524E-02  0.1303852E-07 -0.1816873E+07 -0.1618533E+02  0.3521259E-02 -0.9872019E-07  0.8264921E+07  0.5036266E+02  0.6729517E-01  0.6631017E-06  0.2253606E-01  0.3227033E-05
  0.2425000E+00  0.5033827E-03  0.7152557E-06 -0.1832070E+07 -0.7356921E+02  0.1931731E-01  0.1259148E-05  0.8331740E+07  0.2297122E+03  0.5486872E-01  0.8940697E-07 -0.1950608E-02  0.8940697E-07
  0.2900000E+00  0.1136517E-01 -0.5662441E-06 -0.1849006E+07 -0.2535365E+03  0.3156991E-03  0.3799796E-05  0.8400785E+07  0.7951121E+03 -0.6187702E-01  0.7569790E-05  0.1189133E-01 -0.1955032E-04
  0.3375000E+00  0.7233796E-03  0.5781651E-05 -0.1867469E+07 -0.7204198E+03 -0.1600477E-01 -0.6079674E-05  0.8467222E+07  0.2269912E+04 -0.6908275E-01 -0.3337860E-05  0.1935040E-01  0.2682209E-04
  0.3850000E+00 -0.3170657E-03  0.7987022E-05 -0.1893731E+07 -0.1776625E+04 -0.1022537E-01  0.1907349E-05  0.8575357E+07  0.5631698E+04 -0.3170657E-02 -0.2861023E-04 -0.2330433E-01  0.2217293E-04
  0.4325000E+00 -0.5080383E-02 -0.2598763E-04 -0.1924237E+07 -0.3927123E+04  0.8820109E-02  0.2026558E-04  0.8691288E+07  0.1253059E+05  0.3104678E-02 -0.1153946E-03 -0.1552339E-01 -0.3170967E-04
  0.4800000E+00 -0.3814697E-02 -0.5245209E-05 -0.1959876E+07 -0.7959783E+04 -0.1106262E-01  0.3671646E-04  0.8834941E+07  0.2558738E+05 -0.4933675E-01 -0.4005432E-04  0.1125336E-01  0.5912781E-04
  0.5275000E+00  0.1203347E-01  0.2202988E-03 -0.2000162E+07 -0.1503238E+05 -0.1492613E-01  0.2746582E-03  0.8984179E+07  0.4869639E+05 -0.2036434E-01  0.3280640E-03 -0.4188574E-01  0.5559921E-03
  0.5750000E+00  0.5944293E-02  0.2136230E-03 -0.2052917E+07 -0.2679009E+05  0.1379925E-02  0.1049042E-04  0.9203498E+07  0.8761991E+05  0.2207880E-01  0.4692078E-03 -0.1220703E-01 -0.1335144E-04
  0.6225000E+00  0.1078533E-01  0.1106262E-03 -0.2104765E+07 -0.4540086E+05  0.8530214E-02 -0.2479553E-03  0.9399541E+07  0.1498429E+06 -0.8942018E-01  0.6484985E-03 -0.6569245E-01 -0.1430511E-04
  0.6700000E+00 -0.1676189E-01 -0.5340576E-04 -0.2166602E+07 -0.7370427E+05  0.1375568E-01  0.8354187E-03  0.9647488E+07  0.2458366E+06  0.4919251E-01  0.9918213E-03  0.2168114E-01 -0.5435944E-03
  0.7175000E+00 -0.9187174E-02  0.9078979E-03 -0.2234464E+07 -0.1152105E+06  0.2381860E-01  0.1312256E-02  0.9934854E+07  0.3887655E+06  0.5138012E-01 -0.1678467E-03  0.0000000E+00  0.1914978E-02
  0.7650000E+00  0.2553105E-02  0.3051758E-03 -0.2301394E+07 -0.1740304E+06  0.4707287E-02  0.8087158E-03  0.1021634E+08  0.5942538E+06 -0.2170139E-01  0.1165771E-01  0.1324423E-01  0.9689331E-03
  0.8125000E+00  0.9615385E-02  0.6103516E-03 -0.2364079E+07 -0.2545059E+06  0.5228365E-01 -0.3433228E-03  0.1047880E+08  0.8795476E+06  0.8022837E-01 -0.2563477E-02  0.2554087E-02  0.3829956E-02
  0.8600000E+00  0.7380995E-02 -0.9155273E-04 -0.2427172E+07 -0.3610956E+06  0.1419422E-01 -0.1983643E-03  0.1077306E+08  0.1265246E+07  0.5734466E-01 -0.1263428E-01 -0.1760084E-01 -0.5950928E-02
  0.9075000E+00 -0.3497331E-02 -0.2258301E-02 -0.2478592E+07 -0.4977378E+06 -0.2017691E-02 -0.1373291E-02  0.1103974E+08  0.1769245E+07  0.3604941E-01 -0.4211426E-02  0.5501571E-01  0.4211426E-02
  0.9550000E+00 -0.6135471E-02  0.2990723E-02 -0.2507188E+07 -0.6663280E+06 -0.3540678E-01 -0.3356934E-03  0.1122264E+08  0.2403232E+07 -0.4294830E-01  0.1013184E-01  0.3745194E-01 -0.7507324E-02
  0.1002500E+01  0.4724517E-01  0.3662109E-03 -0.2506506E+07 -0.8662149E+06 -0.1777782E-01  0.5493164E-03  0.1128983E+08  0.3169887E+07 -0.1996961E+00 -0.3381348E-01 -0.6149178E-01  0.1565552E-01
  0.1050000E+01 -0.1302083E-01 -0.7690430E-02 -0.2478831E+07 -0.1092331E+07  0.1650856E-01 -0.6713867E-02  0.1127711E+08  0.4061210E+07  0.2697173E-01 -0.2075195E-02 -0.2673921E-02  0.1800537E-02
  0.1097500E+01  0.9787871E-02 -0.1696777E-01 -0.2413675E+07 -0.1336347E+07  0.2446968E-02 -0.3570557E-02  0.1112405E+08  0.5050496E+07 -0.7474374E-01 -0.9643555E-02 -0.5505677E-01 -0.6713867E-03
  0.1145000E+01  0.4477688E-01 -0.8056641E-02 -0.2310257E+07 -0.1587179E+07  0.3923308E-01  0.1159668E-02  0.1081288E+08  0.6098330E+07 -0.6311408E-01  0.5419922E-01 -0.8528930E-03  0.1513672E-01
  0.1192500E+01 -0.2047301E-02 -0.3417969E-01 -0.2175793E+07 -0.1830261E+07 -0.9929409E-02 -0.8117676E-02  0.1037702E+08  0.7155070E+07 -0.6469471E-01  0.4296875E-01  0.2702437E-01  0.1550293E-01
  0.1240000E+01 -0.3543977E-01 -0.8544922E-02 -0.2013480E+07 -0.2051470E+07  0.1053349E-01  0.8239746E-02  0.9816853E+07  0.8162702E+07 -0.3819619E-01  0.1928711E-01 -0.8859942E-03  0.1611328E-01
  0.1287500E+01 -0.1327366E-01 -0.7324219E-02 -0.1834556E+07 -0.2242182E+07  0.1346329E-01  0.5493164E-02  0.9160989E+07  0.9079908E+07 -0.1554915E-01 -0.8105469E-01 -0.2465109E-02 -0.2844238E-01
  0.1335000E+01  0.2048221E-01  0.2709961E-01 -0.1648310E+07 -0.2393143E+07  0.8229459E-02  0.2685547E-02  0.8451783E+07  0.9867099E+07  0.4754798E-01  0.8618164E-01  0.2002502E-01  0.1586914E-02
  0.1382500E+01 -0.1871892E-01 -0.7812500E-02 -0.1465035E+07 -0.2503414E+07 -0.5562698E-02  0.7019043E-03  0.7731446E+07  0.1051274E+08  0.1066625E+00 -0.1892090E-01  0.1024243E-01 -0.1025391E-01